 4.427409 0.000000 -0.000000
 0.000000 4.427409 -0.000000
 -0.000000 0.000000 4.427409
 -2.65111 0.00000 -0.00000
 -0.00000 -0.82995 0.00000
 -0.00000 0.00000 -0.82995
 -0.82995 -0.00000 -0.00000
 0.00000 -2.65111 0.00000
 0.00000 0.00000 -0.82995
 -0.82995 -0.00000 0.00000
 0.00000 -0.82995 -0.00000
 0.00000 -0.00000 -2.65111
 2.95114 0.00000 -0.00000
 0.00000 2.95114 0.00000
 -0.00000 0.00000 2.95114
 1.35987 0.00000 -0.00000
 0.00000 1.35987 0.00000
 -0.00000 0.00000 1.35987
