# Animation of a phonon mode
# K point :        0       0       0
# Mode index :   14
# Frequency (cm^-1) : 157.705

ANIMSTEPS 20
CRYSTAL
PRIMVEC
   1.097449e+01  -0.000000e+00   0.000000e+00
   0.000000e+00   1.097449e+01   0.000000e+00
  -0.000000e+00   0.000000e+00   1.097449e+01
PRIMCOORD          1
        40         1
        Br   6.877533e-18   2.743624e+00   2.743624e+00
        Br   2.743624e+00   7.612413e-18   2.743624e+00
        Br   2.743624e+00   2.743624e+00   4.276710e-18
        Cd   2.743624e+00   2.743624e+00   2.743624e+00
        Cs   3.227750e-18   4.364783e-19   3.651210e-18
        Br   6.877533e-18   2.743624e+00   8.230871e+00
        Br   2.743624e+00   7.612413e-18   8.230871e+00
        Br   2.743624e+00   2.743624e+00   5.487247e+00
        Cd   2.743624e+00   2.743624e+00   8.230871e+00
        Cs   3.227750e-18   4.364783e-19   5.487247e+00
        Br   6.877533e-18   8.230871e+00   2.743624e+00
        Br   2.743624e+00   5.487247e+00   2.743624e+00
        Br   2.743624e+00   8.230871e+00   4.276710e-18
        Cd   2.743624e+00   8.230871e+00   2.743624e+00
        Cs   3.227750e-18   5.487247e+00   3.651210e-18
        Br   6.877533e-18   8.230871e+00   8.230871e+00
        Br   2.743624e+00   5.487247e+00   8.230871e+00
        Br   2.743624e+00   8.230871e+00   5.487247e+00
        Cd   2.743624e+00   8.230871e+00   8.230871e+00
        Cs   3.227750e-18   5.487247e+00   5.487247e+00
        Br   5.487247e+00   2.743624e+00   2.743624e+00
        Br   8.230871e+00   7.612413e-18   2.743624e+00
        Br   8.230871e+00   2.743624e+00   4.276710e-18
        Cd   8.230871e+00   2.743624e+00   2.743624e+00
        Cs   5.487247e+00   4.364783e-19   3.651210e-18
        Br   5.487247e+00   2.743624e+00   8.230871e+00
        Br   8.230871e+00   7.612413e-18   8.230871e+00
        Br   8.230871e+00   2.743624e+00   5.487247e+00
        Cd   8.230871e+00   2.743624e+00   8.230871e+00
        Cs   5.487247e+00   4.364783e-19   5.487247e+00
        Br   5.487247e+00   8.230871e+00   2.743624e+00
        Br   8.230871e+00   5.487247e+00   2.743624e+00
        Br   8.230871e+00   8.230871e+00   4.276710e-18
        Cd   8.230871e+00   8.230871e+00   2.743624e+00
        Cs   5.487247e+00   5.487247e+00   3.651210e-18
        Br   5.487247e+00   8.230871e+00   8.230871e+00
        Br   8.230871e+00   5.487247e+00   8.230871e+00
        Br   8.230871e+00   8.230871e+00   5.487247e+00
        Cd   8.230871e+00   8.230871e+00   8.230871e+00
        Cs   5.487247e+00   5.487247e+00   5.487247e+00
PRIMCOORD          2
        40         1
        Br  -3.300962e-02   2.781725e+00   2.773849e+00
        Br   2.743636e+00  -3.653677e-02   2.789667e+00
        Br   2.792258e+00   2.769475e+00  -2.052663e-02
        Cd   2.750317e+00   2.763037e+00   2.743959e+00
        Cs  -1.549201e-02  -2.094935e-03  -1.752446e-02
        Br  -3.300962e-02   2.781725e+00   8.261097e+00
        Br   2.743636e+00  -3.653677e-02   8.276914e+00
        Br   2.792258e+00   2.769475e+00   5.466721e+00
        Cd   2.750317e+00   2.763037e+00   8.231206e+00
        Cs  -1.549201e-02  -2.094935e-03   5.469723e+00
        Br  -3.300962e-02   8.268972e+00   2.773849e+00
        Br   2.743636e+00   5.450711e+00   2.789667e+00
        Br   2.792258e+00   8.256722e+00  -2.052663e-02
        Cd   2.750317e+00   8.250284e+00   2.743959e+00
        Cs  -1.549201e-02   5.485152e+00  -1.752446e-02
        Br  -3.300962e-02   8.268972e+00   8.261097e+00
        Br   2.743636e+00   5.450711e+00   8.276914e+00
        Br   2.792258e+00   8.256722e+00   5.466721e+00
        Cd   2.750317e+00   8.250284e+00   8.231206e+00
        Cs  -1.549201e-02   5.485152e+00   5.469723e+00
        Br   5.454238e+00   2.781725e+00   2.773849e+00
        Br   8.230883e+00  -3.653677e-02   2.789667e+00
        Br   8.279505e+00   2.769475e+00  -2.052663e-02
        Cd   8.237565e+00   2.763037e+00   2.743959e+00
        Cs   5.471755e+00  -2.094935e-03  -1.752446e-02
        Br   5.454238e+00   2.781725e+00   8.261097e+00
        Br   8.230883e+00  -3.653677e-02   8.276914e+00
        Br   8.279505e+00   2.769475e+00   5.466721e+00
        Cd   8.237565e+00   2.763037e+00   8.231206e+00
        Cs   5.471755e+00  -2.094935e-03   5.469723e+00
        Br   5.454238e+00   8.268972e+00   2.773849e+00
        Br   8.230883e+00   5.450711e+00   2.789667e+00
        Br   8.279505e+00   8.256722e+00  -2.052663e-02
        Cd   8.237565e+00   8.250284e+00   2.743959e+00
        Cs   5.471755e+00   5.485152e+00  -1.752446e-02
        Br   5.454238e+00   8.268972e+00   8.261097e+00
        Br   8.230883e+00   5.450711e+00   8.276914e+00
        Br   8.279505e+00   8.256722e+00   5.466721e+00
        Cd   8.237565e+00   8.250284e+00   8.231206e+00
        Cs   5.471755e+00   5.485152e+00   5.469723e+00
PRIMCOORD          3
        40         1
        Br  -5.341068e-02   2.805272e+00   2.792530e+00
        Br   2.743643e+00  -5.911774e-02   2.818123e+00
        Br   2.822315e+00   2.785452e+00  -3.321279e-02
        Cd   2.754454e+00   2.775035e+00   2.744167e+00
        Cs  -2.506660e-02  -3.389675e-03  -2.835517e-02
        Br  -5.341068e-02   2.805272e+00   8.279777e+00
        Br   2.743643e+00  -5.911774e-02   8.305370e+00
        Br   2.822315e+00   2.785452e+00   5.454035e+00
        Cd   2.754454e+00   2.775035e+00   8.231414e+00
        Cs  -2.506660e-02  -3.389675e-03   5.458892e+00
        Br  -5.341068e-02   8.292520e+00   2.792530e+00
        Br   2.743643e+00   5.428130e+00   2.818123e+00
        Br   2.822315e+00   8.272699e+00  -3.321279e-02
        Cd   2.754454e+00   8.262282e+00   2.744167e+00
        Cs  -2.506660e-02   5.483858e+00  -2.835517e-02
        Br  -5.341068e-02   8.292520e+00   8.279777e+00
        Br   2.743643e+00   5.428130e+00   8.305370e+00
        Br   2.822315e+00   8.272699e+00   5.454035e+00
        Cd   2.754454e+00   8.262282e+00   8.231414e+00
        Cs  -2.506660e-02   5.483858e+00   5.458892e+00
        Br   5.433837e+00   2.805272e+00   2.792530e+00
        Br   8.230891e+00  -5.911774e-02   2.818123e+00
        Br   8.309563e+00   2.785452e+00  -3.321279e-02
        Cd   8.241701e+00   2.775035e+00   2.744167e+00
        Cs   5.462181e+00  -3.389675e-03  -2.835517e-02
        Br   5.433837e+00   2.805272e+00   8.279777e+00
        Br   8.230891e+00  -5.911774e-02   8.305370e+00
        Br   8.309563e+00   2.785452e+00   5.454035e+00
        Cd   8.241701e+00   2.775035e+00   8.231414e+00
        Cs   5.462181e+00  -3.389675e-03   5.458892e+00
        Br   5.433837e+00   8.292520e+00   2.792530e+00
        Br   8.230891e+00   5.428130e+00   2.818123e+00
        Br   8.309563e+00   8.272699e+00  -3.321279e-02
        Cd   8.241701e+00   8.262282e+00   2.744167e+00
        Cs   5.462181e+00   5.483858e+00  -2.835517e-02
        Br   5.433837e+00   8.292520e+00   8.279777e+00
        Br   8.230891e+00   5.428130e+00   8.305370e+00
        Br   8.309563e+00   8.272699e+00   5.454035e+00
        Cd   8.241701e+00   8.262282e+00   8.231414e+00
        Cs   5.462181e+00   5.483858e+00   5.458892e+00
PRIMCOORD          4
        40         1
        Br  -5.341068e-02   2.805272e+00   2.792530e+00
        Br   2.743643e+00  -5.911774e-02   2.818123e+00
        Br   2.822315e+00   2.785452e+00  -3.321279e-02
        Cd   2.754454e+00   2.775035e+00   2.744167e+00
        Cs  -2.506660e-02  -3.389675e-03  -2.835517e-02
        Br  -5.341068e-02   2.805272e+00   8.279777e+00
        Br   2.743643e+00  -5.911774e-02   8.305370e+00
        Br   2.822315e+00   2.785452e+00   5.454035e+00
        Cd   2.754454e+00   2.775035e+00   8.231414e+00
        Cs  -2.506660e-02  -3.389675e-03   5.458892e+00
        Br  -5.341068e-02   8.292520e+00   2.792530e+00
        Br   2.743643e+00   5.428130e+00   2.818123e+00
        Br   2.822315e+00   8.272699e+00  -3.321279e-02
        Cd   2.754454e+00   8.262282e+00   2.744167e+00
        Cs  -2.506660e-02   5.483858e+00  -2.835517e-02
        Br  -5.341068e-02   8.292520e+00   8.279777e+00
        Br   2.743643e+00   5.428130e+00   8.305370e+00
        Br   2.822315e+00   8.272699e+00   5.454035e+00
        Cd   2.754454e+00   8.262282e+00   8.231414e+00
        Cs  -2.506660e-02   5.483858e+00   5.458892e+00
        Br   5.433837e+00   2.805272e+00   2.792530e+00
        Br   8.230891e+00  -5.911774e-02   2.818123e+00
        Br   8.309563e+00   2.785452e+00  -3.321279e-02
        Cd   8.241701e+00   2.775035e+00   2.744167e+00
        Cs   5.462181e+00  -3.389675e-03  -2.835517e-02
        Br   5.433837e+00   2.805272e+00   8.279777e+00
        Br   8.230891e+00  -5.911774e-02   8.305370e+00
        Br   8.309563e+00   2.785452e+00   5.454035e+00
        Cd   8.241701e+00   2.775035e+00   8.231414e+00
        Cs   5.462181e+00  -3.389675e-03   5.458892e+00
        Br   5.433837e+00   8.292520e+00   2.792530e+00
        Br   8.230891e+00   5.428130e+00   2.818123e+00
        Br   8.309563e+00   8.272699e+00  -3.321279e-02
        Cd   8.241701e+00   8.262282e+00   2.744167e+00
        Cs   5.462181e+00   5.483858e+00  -2.835517e-02
        Br   5.433837e+00   8.292520e+00   8.279777e+00
        Br   8.230891e+00   5.428130e+00   8.305370e+00
        Br   8.309563e+00   8.272699e+00   5.454035e+00
        Cd   8.241701e+00   8.262282e+00   8.231414e+00
        Cs   5.462181e+00   5.483858e+00   5.458892e+00
PRIMCOORD          5
        40         1
        Br  -3.300962e-02   2.781725e+00   2.773849e+00
        Br   2.743636e+00  -3.653677e-02   2.789667e+00
        Br   2.792258e+00   2.769475e+00  -2.052663e-02
        Cd   2.750317e+00   2.763037e+00   2.743959e+00
        Cs  -1.549201e-02  -2.094935e-03  -1.752446e-02
        Br  -3.300962e-02   2.781725e+00   8.261097e+00
        Br   2.743636e+00  -3.653677e-02   8.276914e+00
        Br   2.792258e+00   2.769475e+00   5.466721e+00
        Cd   2.750317e+00   2.763037e+00   8.231206e+00
        Cs  -1.549201e-02  -2.094935e-03   5.469723e+00
        Br  -3.300962e-02   8.268972e+00   2.773849e+00
        Br   2.743636e+00   5.450711e+00   2.789667e+00
        Br   2.792258e+00   8.256722e+00  -2.052663e-02
        Cd   2.750317e+00   8.250284e+00   2.743959e+00
        Cs  -1.549201e-02   5.485152e+00  -1.752446e-02
        Br  -3.300962e-02   8.268972e+00   8.261097e+00
        Br   2.743636e+00   5.450711e+00   8.276914e+00
        Br   2.792258e+00   8.256722e+00   5.466721e+00
        Cd   2.750317e+00   8.250284e+00   8.231206e+00
        Cs  -1.549201e-02   5.485152e+00   5.469723e+00
        Br   5.454238e+00   2.781725e+00   2.773849e+00
        Br   8.230883e+00  -3.653677e-02   2.789667e+00
        Br   8.279505e+00   2.769475e+00  -2.052663e-02
        Cd   8.237565e+00   2.763037e+00   2.743959e+00
        Cs   5.471755e+00  -2.094935e-03  -1.752446e-02
        Br   5.454238e+00   2.781725e+00   8.261097e+00
        Br   8.230883e+00  -3.653677e-02   8.276914e+00
        Br   8.279505e+00   2.769475e+00   5.466721e+00
        Cd   8.237565e+00   2.763037e+00   8.231206e+00
        Cs   5.471755e+00  -2.094935e-03   5.469723e+00
        Br   5.454238e+00   8.268972e+00   2.773849e+00
        Br   8.230883e+00   5.450711e+00   2.789667e+00
        Br   8.279505e+00   8.256722e+00  -2.052663e-02
        Cd   8.237565e+00   8.250284e+00   2.743959e+00
        Cs   5.471755e+00   5.485152e+00  -1.752446e-02
        Br   5.454238e+00   8.268972e+00   8.261097e+00
        Br   8.230883e+00   5.450711e+00   8.276914e+00
        Br   8.279505e+00   8.256722e+00   5.466721e+00
        Cd   8.237565e+00   8.250284e+00   8.231206e+00
        Cs   5.471755e+00   5.485152e+00   5.469723e+00
PRIMCOORD          6
        40         1
        Br  -1.375507e-17   2.743624e+00   2.743624e+00
        Br   2.743624e+00  -1.522483e-17   2.743624e+00
        Br   2.743624e+00   2.743624e+00  -8.553421e-18
        Cd   2.743624e+00   2.743624e+00   2.743624e+00
        Cs  -6.455500e-18  -8.729565e-19  -7.302419e-18
        Br  -1.375507e-17   2.743624e+00   8.230871e+00
        Br   2.743624e+00  -1.522483e-17   8.230871e+00
        Br   2.743624e+00   2.743624e+00   5.487247e+00
        Cd   2.743624e+00   2.743624e+00   8.230871e+00
        Cs  -6.455500e-18  -8.729565e-19   5.487247e+00
        Br  -1.375507e-17   8.230871e+00   2.743624e+00
        Br   2.743624e+00   5.487247e+00   2.743624e+00
        Br   2.743624e+00   8.230871e+00  -8.553421e-18
        Cd   2.743624e+00   8.230871e+00   2.743624e+00
        Cs  -6.455500e-18   5.487247e+00  -7.302419e-18
        Br  -1.375507e-17   8.230871e+00   8.230871e+00
        Br   2.743624e+00   5.487247e+00   8.230871e+00
        Br   2.743624e+00   8.230871e+00   5.487247e+00
        Cd   2.743624e+00   8.230871e+00   8.230871e+00
        Cs  -6.455500e-18   5.487247e+00   5.487247e+00
        Br   5.487247e+00   2.743624e+00   2.743624e+00
        Br   8.230871e+00  -1.522483e-17   2.743624e+00
        Br   8.230871e+00   2.743624e+00  -8.553421e-18
        Cd   8.230871e+00   2.743624e+00   2.743624e+00
        Cs   5.487247e+00  -8.729565e-19  -7.302419e-18
        Br   5.487247e+00   2.743624e+00   8.230871e+00
        Br   8.230871e+00  -1.522483e-17   8.230871e+00
        Br   8.230871e+00   2.743624e+00   5.487247e+00
        Cd   8.230871e+00   2.743624e+00   8.230871e+00
        Cs   5.487247e+00  -8.729565e-19   5.487247e+00
        Br   5.487247e+00   8.230871e+00   2.743624e+00
        Br   8.230871e+00   5.487247e+00   2.743624e+00
        Br   8.230871e+00   8.230871e+00  -8.553421e-18
        Cd   8.230871e+00   8.230871e+00   2.743624e+00
        Cs   5.487247e+00   5.487247e+00  -7.302419e-18
        Br   5.487247e+00   8.230871e+00   8.230871e+00
        Br   8.230871e+00   5.487247e+00   8.230871e+00
        Br   8.230871e+00   8.230871e+00   5.487247e+00
        Cd   8.230871e+00   8.230871e+00   8.230871e+00
        Cs   5.487247e+00   5.487247e+00   5.487247e+00
PRIMCOORD          7
        40         1
        Br   3.300962e-02   2.705523e+00   2.713398e+00
        Br   2.743612e+00   3.653677e-02   2.697580e+00
        Br   2.694990e+00   2.717772e+00   2.052663e-02
        Cd   2.736930e+00   2.724211e+00   2.743288e+00
        Cs   1.549201e-02   2.094935e-03   1.752446e-02
        Br   3.300962e-02   2.705523e+00   8.200645e+00
        Br   2.743612e+00   3.653677e-02   8.184828e+00
        Br   2.694990e+00   2.717772e+00   5.507774e+00
        Cd   2.736930e+00   2.724211e+00   8.230535e+00
        Cs   1.549201e-02   2.094935e-03   5.504772e+00
        Br   3.300962e-02   8.192770e+00   2.713398e+00
        Br   2.743612e+00   5.523784e+00   2.697580e+00
        Br   2.694990e+00   8.205020e+00   2.052663e-02
        Cd   2.736930e+00   8.211458e+00   2.743288e+00
        Cs   1.549201e-02   5.489342e+00   1.752446e-02
        Br   3.300962e-02   8.192770e+00   8.200645e+00
        Br   2.743612e+00   5.523784e+00   8.184828e+00
        Br   2.694990e+00   8.205020e+00   5.507774e+00
        Cd   2.736930e+00   8.211458e+00   8.230535e+00
        Cs   1.549201e-02   5.489342e+00   5.504772e+00
        Br   5.520257e+00   2.705523e+00   2.713398e+00
        Br   8.230859e+00   3.653677e-02   2.697580e+00
        Br   8.182237e+00   2.717772e+00   2.052663e-02
        Cd   8.224177e+00   2.724211e+00   2.743288e+00
        Cs   5.502739e+00   2.094935e-03   1.752446e-02
        Br   5.520257e+00   2.705523e+00   8.200645e+00
        Br   8.230859e+00   3.653677e-02   8.184828e+00
        Br   8.182237e+00   2.717772e+00   5.507774e+00
        Cd   8.224177e+00   2.724211e+00   8.230535e+00
        Cs   5.502739e+00   2.094935e-03   5.504772e+00
        Br   5.520257e+00   8.192770e+00   2.713398e+00
        Br   8.230859e+00   5.523784e+00   2.697580e+00
        Br   8.182237e+00   8.205020e+00   2.052663e-02
        Cd   8.224177e+00   8.211458e+00   2.743288e+00
        Cs   5.502739e+00   5.489342e+00   1.752446e-02
        Br   5.520257e+00   8.192770e+00   8.200645e+00
        Br   8.230859e+00   5.523784e+00   8.184828e+00
        Br   8.182237e+00   8.205020e+00   5.507774e+00
        Cd   8.224177e+00   8.211458e+00   8.230535e+00
        Cs   5.502739e+00   5.489342e+00   5.504772e+00
PRIMCOORD          8
        40         1
        Br   5.341068e-02   2.681975e+00   2.694717e+00
        Br   2.743604e+00   5.911774e-02   2.669124e+00
        Br   2.664932e+00   2.701795e+00   3.321279e-02
        Cd   2.732793e+00   2.712213e+00   2.743081e+00
        Cs   2.506660e-02   3.389675e-03   2.835517e-02
        Br   5.341068e-02   2.681975e+00   8.181965e+00
        Br   2.743604e+00   5.911774e-02   8.156371e+00
        Br   2.664932e+00   2.701795e+00   5.520460e+00
        Cd   2.732793e+00   2.712213e+00   8.230328e+00
        Cs   2.506660e-02   3.389675e-03   5.515602e+00
        Br   5.341068e-02   8.169222e+00   2.694717e+00
        Br   2.743604e+00   5.546365e+00   2.669124e+00
        Br   2.664932e+00   8.189043e+00   3.321279e-02
        Cd   2.732793e+00   8.199460e+00   2.743081e+00
        Cs   2.506660e-02   5.490637e+00   2.835517e-02
        Br   5.341068e-02   8.169222e+00   8.181965e+00
        Br   2.743604e+00   5.546365e+00   8.156371e+00
        Br   2.664932e+00   8.189043e+00   5.520460e+00
        Cd   2.732793e+00   8.199460e+00   8.230328e+00
        Cs   2.506660e-02   5.490637e+00   5.515602e+00
        Br   5.540658e+00   2.681975e+00   2.694717e+00
        Br   8.230851e+00   5.911774e-02   2.669124e+00
        Br   8.152179e+00   2.701795e+00   3.321279e-02
        Cd   8.220040e+00   2.712213e+00   2.743081e+00
        Cs   5.512314e+00   3.389675e-03   2.835517e-02
        Br   5.540658e+00   2.681975e+00   8.181965e+00
        Br   8.230851e+00   5.911774e-02   8.156371e+00
        Br   8.152179e+00   2.701795e+00   5.520460e+00
        Cd   8.220040e+00   2.712213e+00   8.230328e+00
        Cs   5.512314e+00   3.389675e-03   5.515602e+00
        Br   5.540658e+00   8.169222e+00   2.694717e+00
        Br   8.230851e+00   5.546365e+00   2.669124e+00
        Br   8.152179e+00   8.189043e+00   3.321279e-02
        Cd   8.220040e+00   8.199460e+00   2.743081e+00
        Cs   5.512314e+00   5.490637e+00   2.835517e-02
        Br   5.540658e+00   8.169222e+00   8.181965e+00
        Br   8.230851e+00   5.546365e+00   8.156371e+00
        Br   8.152179e+00   8.189043e+00   5.520460e+00
        Cd   8.220040e+00   8.199460e+00   8.230328e+00
        Cs   5.512314e+00   5.490637e+00   5.515602e+00
PRIMCOORD          9
        40         1
        Br   5.341068e-02   2.681975e+00   2.694717e+00
        Br   2.743604e+00   5.911774e-02   2.669124e+00
        Br   2.664932e+00   2.701795e+00   3.321279e-02
        Cd   2.732793e+00   2.712213e+00   2.743081e+00
        Cs   2.506660e-02   3.389675e-03   2.835517e-02
        Br   5.341068e-02   2.681975e+00   8.181965e+00
        Br   2.743604e+00   5.911774e-02   8.156371e+00
        Br   2.664932e+00   2.701795e+00   5.520460e+00
        Cd   2.732793e+00   2.712213e+00   8.230328e+00
        Cs   2.506660e-02   3.389675e-03   5.515602e+00
        Br   5.341068e-02   8.169222e+00   2.694717e+00
        Br   2.743604e+00   5.546365e+00   2.669124e+00
        Br   2.664932e+00   8.189043e+00   3.321279e-02
        Cd   2.732793e+00   8.199460e+00   2.743081e+00
        Cs   2.506660e-02   5.490637e+00   2.835517e-02
        Br   5.341068e-02   8.169222e+00   8.181965e+00
        Br   2.743604e+00   5.546365e+00   8.156371e+00
        Br   2.664932e+00   8.189043e+00   5.520460e+00
        Cd   2.732793e+00   8.199460e+00   8.230328e+00
        Cs   2.506660e-02   5.490637e+00   5.515602e+00
        Br   5.540658e+00   2.681975e+00   2.694717e+00
        Br   8.230851e+00   5.911774e-02   2.669124e+00
        Br   8.152179e+00   2.701795e+00   3.321279e-02
        Cd   8.220040e+00   2.712213e+00   2.743081e+00
        Cs   5.512314e+00   3.389675e-03   2.835517e-02
        Br   5.540658e+00   2.681975e+00   8.181965e+00
        Br   8.230851e+00   5.911774e-02   8.156371e+00
        Br   8.152179e+00   2.701795e+00   5.520460e+00
        Cd   8.220040e+00   2.712213e+00   8.230328e+00
        Cs   5.512314e+00   3.389675e-03   5.515602e+00
        Br   5.540658e+00   8.169222e+00   2.694717e+00
        Br   8.230851e+00   5.546365e+00   2.669124e+00
        Br   8.152179e+00   8.189043e+00   3.321279e-02
        Cd   8.220040e+00   8.199460e+00   2.743081e+00
        Cs   5.512314e+00   5.490637e+00   2.835517e-02
        Br   5.540658e+00   8.169222e+00   8.181965e+00
        Br   8.230851e+00   5.546365e+00   8.156371e+00
        Br   8.152179e+00   8.189043e+00   5.520460e+00
        Cd   8.220040e+00   8.199460e+00   8.230328e+00
        Cs   5.512314e+00   5.490637e+00   5.515602e+00
PRIMCOORD         10
        40         1
        Br   3.300962e-02   2.705523e+00   2.713398e+00
        Br   2.743612e+00   3.653677e-02   2.697580e+00
        Br   2.694990e+00   2.717772e+00   2.052663e-02
        Cd   2.736930e+00   2.724211e+00   2.743288e+00
        Cs   1.549201e-02   2.094935e-03   1.752446e-02
        Br   3.300962e-02   2.705523e+00   8.200645e+00
        Br   2.743612e+00   3.653677e-02   8.184828e+00
        Br   2.694990e+00   2.717772e+00   5.507774e+00
        Cd   2.736930e+00   2.724211e+00   8.230535e+00
        Cs   1.549201e-02   2.094935e-03   5.504772e+00
        Br   3.300962e-02   8.192770e+00   2.713398e+00
        Br   2.743612e+00   5.523784e+00   2.697580e+00
        Br   2.694990e+00   8.205020e+00   2.052663e-02
        Cd   2.736930e+00   8.211458e+00   2.743288e+00
        Cs   1.549201e-02   5.489342e+00   1.752446e-02
        Br   3.300962e-02   8.192770e+00   8.200645e+00
        Br   2.743612e+00   5.523784e+00   8.184828e+00
        Br   2.694990e+00   8.205020e+00   5.507774e+00
        Cd   2.736930e+00   8.211458e+00   8.230535e+00
        Cs   1.549201e-02   5.489342e+00   5.504772e+00
        Br   5.520257e+00   2.705523e+00   2.713398e+00
        Br   8.230859e+00   3.653677e-02   2.697580e+00
        Br   8.182237e+00   2.717772e+00   2.052663e-02
        Cd   8.224177e+00   2.724211e+00   2.743288e+00
        Cs   5.502739e+00   2.094935e-03   1.752446e-02
        Br   5.520257e+00   2.705523e+00   8.200645e+00
        Br   8.230859e+00   3.653677e-02   8.184828e+00
        Br   8.182237e+00   2.717772e+00   5.507774e+00
        Cd   8.224177e+00   2.724211e+00   8.230535e+00
        Cs   5.502739e+00   2.094935e-03   5.504772e+00
        Br   5.520257e+00   8.192770e+00   2.713398e+00
        Br   8.230859e+00   5.523784e+00   2.697580e+00
        Br   8.182237e+00   8.205020e+00   2.052663e-02
        Cd   8.224177e+00   8.211458e+00   2.743288e+00
        Cs   5.502739e+00   5.489342e+00   1.752446e-02
        Br   5.520257e+00   8.192770e+00   8.200645e+00
        Br   8.230859e+00   5.523784e+00   8.184828e+00
        Br   8.182237e+00   8.205020e+00   5.507774e+00
        Cd   8.224177e+00   8.211458e+00   8.230535e+00
        Cs   5.502739e+00   5.489342e+00   5.504772e+00
PRIMCOORD         11
        40         1
        Br   2.063260e-17   2.743624e+00   2.743624e+00
        Br   2.743624e+00   2.283724e-17   2.743624e+00
        Br   2.743624e+00   2.743624e+00   1.283013e-17
        Cd   2.743624e+00   2.743624e+00   2.743624e+00
        Cs   9.683250e-18   1.309435e-18   1.095363e-17
        Br   2.063260e-17   2.743624e+00   8.230871e+00
        Br   2.743624e+00   2.283724e-17   8.230871e+00
        Br   2.743624e+00   2.743624e+00   5.487247e+00
        Cd   2.743624e+00   2.743624e+00   8.230871e+00
        Cs   9.683250e-18   1.309435e-18   5.487247e+00
        Br   2.063260e-17   8.230871e+00   2.743624e+00
        Br   2.743624e+00   5.487247e+00   2.743624e+00
        Br   2.743624e+00   8.230871e+00   1.283013e-17
        Cd   2.743624e+00   8.230871e+00   2.743624e+00
        Cs   9.683250e-18   5.487247e+00   1.095363e-17
        Br   2.063260e-17   8.230871e+00   8.230871e+00
        Br   2.743624e+00   5.487247e+00   8.230871e+00
        Br   2.743624e+00   8.230871e+00   5.487247e+00
        Cd   2.743624e+00   8.230871e+00   8.230871e+00
        Cs   9.683250e-18   5.487247e+00   5.487247e+00
        Br   5.487247e+00   2.743624e+00   2.743624e+00
        Br   8.230871e+00   2.283724e-17   2.743624e+00
        Br   8.230871e+00   2.743624e+00   1.283013e-17
        Cd   8.230871e+00   2.743624e+00   2.743624e+00
        Cs   5.487247e+00   1.309435e-18   1.095363e-17
        Br   5.487247e+00   2.743624e+00   8.230871e+00
        Br   8.230871e+00   2.283724e-17   8.230871e+00
        Br   8.230871e+00   2.743624e+00   5.487247e+00
        Cd   8.230871e+00   2.743624e+00   8.230871e+00
        Cs   5.487247e+00   1.309435e-18   5.487247e+00
        Br   5.487247e+00   8.230871e+00   2.743624e+00
        Br   8.230871e+00   5.487247e+00   2.743624e+00
        Br   8.230871e+00   8.230871e+00   1.283013e-17
        Cd   8.230871e+00   8.230871e+00   2.743624e+00
        Cs   5.487247e+00   5.487247e+00   1.095363e-17
        Br   5.487247e+00   8.230871e+00   8.230871e+00
        Br   8.230871e+00   5.487247e+00   8.230871e+00
        Br   8.230871e+00   8.230871e+00   5.487247e+00
        Cd   8.230871e+00   8.230871e+00   8.230871e+00
        Cs   5.487247e+00   5.487247e+00   5.487247e+00
PRIMCOORD         12
        40         1
        Br  -3.300962e-02   2.781725e+00   2.773849e+00
        Br   2.743636e+00  -3.653677e-02   2.789667e+00
        Br   2.792258e+00   2.769475e+00  -2.052663e-02
        Cd   2.750317e+00   2.763037e+00   2.743959e+00
        Cs  -1.549201e-02  -2.094935e-03  -1.752446e-02
        Br  -3.300962e-02   2.781725e+00   8.261097e+00
        Br   2.743636e+00  -3.653677e-02   8.276914e+00
        Br   2.792258e+00   2.769475e+00   5.466721e+00
        Cd   2.750317e+00   2.763037e+00   8.231206e+00
        Cs  -1.549201e-02  -2.094935e-03   5.469723e+00
        Br  -3.300962e-02   8.268972e+00   2.773849e+00
        Br   2.743636e+00   5.450711e+00   2.789667e+00
        Br   2.792258e+00   8.256722e+00  -2.052663e-02
        Cd   2.750317e+00   8.250284e+00   2.743959e+00
        Cs  -1.549201e-02   5.485152e+00  -1.752446e-02
        Br  -3.300962e-02   8.268972e+00   8.261097e+00
        Br   2.743636e+00   5.450711e+00   8.276914e+00
        Br   2.792258e+00   8.256722e+00   5.466721e+00
        Cd   2.750317e+00   8.250284e+00   8.231206e+00
        Cs  -1.549201e-02   5.485152e+00   5.469723e+00
        Br   5.454238e+00   2.781725e+00   2.773849e+00
        Br   8.230883e+00  -3.653677e-02   2.789667e+00
        Br   8.279505e+00   2.769475e+00  -2.052663e-02
        Cd   8.237565e+00   2.763037e+00   2.743959e+00
        Cs   5.471755e+00  -2.094935e-03  -1.752446e-02
        Br   5.454238e+00   2.781725e+00   8.261097e+00
        Br   8.230883e+00  -3.653677e-02   8.276914e+00
        Br   8.279505e+00   2.769475e+00   5.466721e+00
        Cd   8.237565e+00   2.763037e+00   8.231206e+00
        Cs   5.471755e+00  -2.094935e-03   5.469723e+00
        Br   5.454238e+00   8.268972e+00   2.773849e+00
        Br   8.230883e+00   5.450711e+00   2.789667e+00
        Br   8.279505e+00   8.256722e+00  -2.052663e-02
        Cd   8.237565e+00   8.250284e+00   2.743959e+00
        Cs   5.471755e+00   5.485152e+00  -1.752446e-02
        Br   5.454238e+00   8.268972e+00   8.261097e+00
        Br   8.230883e+00   5.450711e+00   8.276914e+00
        Br   8.279505e+00   8.256722e+00   5.466721e+00
        Cd   8.237565e+00   8.250284e+00   8.231206e+00
        Cs   5.471755e+00   5.485152e+00   5.469723e+00
PRIMCOORD         13
        40         1
        Br  -5.341068e-02   2.805272e+00   2.792530e+00
        Br   2.743643e+00  -5.911774e-02   2.818123e+00
        Br   2.822315e+00   2.785452e+00  -3.321279e-02
        Cd   2.754454e+00   2.775035e+00   2.744167e+00
        Cs  -2.506660e-02  -3.389675e-03  -2.835517e-02
        Br  -5.341068e-02   2.805272e+00   8.279777e+00
        Br   2.743643e+00  -5.911774e-02   8.305370e+00
        Br   2.822315e+00   2.785452e+00   5.454035e+00
        Cd   2.754454e+00   2.775035e+00   8.231414e+00
        Cs  -2.506660e-02  -3.389675e-03   5.458892e+00
        Br  -5.341068e-02   8.292520e+00   2.792530e+00
        Br   2.743643e+00   5.428130e+00   2.818123e+00
        Br   2.822315e+00   8.272699e+00  -3.321279e-02
        Cd   2.754454e+00   8.262282e+00   2.744167e+00
        Cs  -2.506660e-02   5.483858e+00  -2.835517e-02
        Br  -5.341068e-02   8.292520e+00   8.279777e+00
        Br   2.743643e+00   5.428130e+00   8.305370e+00
        Br   2.822315e+00   8.272699e+00   5.454035e+00
        Cd   2.754454e+00   8.262282e+00   8.231414e+00
        Cs  -2.506660e-02   5.483858e+00   5.458892e+00
        Br   5.433837e+00   2.805272e+00   2.792530e+00
        Br   8.230891e+00  -5.911774e-02   2.818123e+00
        Br   8.309563e+00   2.785452e+00  -3.321279e-02
        Cd   8.241701e+00   2.775035e+00   2.744167e+00
        Cs   5.462181e+00  -3.389675e-03  -2.835517e-02
        Br   5.433837e+00   2.805272e+00   8.279777e+00
        Br   8.230891e+00  -5.911774e-02   8.305370e+00
        Br   8.309563e+00   2.785452e+00   5.454035e+00
        Cd   8.241701e+00   2.775035e+00   8.231414e+00
        Cs   5.462181e+00  -3.389675e-03   5.458892e+00
        Br   5.433837e+00   8.292520e+00   2.792530e+00
        Br   8.230891e+00   5.428130e+00   2.818123e+00
        Br   8.309563e+00   8.272699e+00  -3.321279e-02
        Cd   8.241701e+00   8.262282e+00   2.744167e+00
        Cs   5.462181e+00   5.483858e+00  -2.835517e-02
        Br   5.433837e+00   8.292520e+00   8.279777e+00
        Br   8.230891e+00   5.428130e+00   8.305370e+00
        Br   8.309563e+00   8.272699e+00   5.454035e+00
        Cd   8.241701e+00   8.262282e+00   8.231414e+00
        Cs   5.462181e+00   5.483858e+00   5.458892e+00
PRIMCOORD         14
        40         1