ANIMSTEPS 3750
CRYSTAL
PRIMVEC
   5.487247e+00  -0.000000e+00   0.000000e+00
   0.000000e+00   5.487247e+00   0.000000e+00
  -0.000000e+00   0.000000e+00   5.487247e+00
PRIMCOORD          1
         5         1
        Br   0.000000e+00   2.743624e+00   2.743624e+00  -1.007701e-05  -8.805205e-07   7.451690e-05
        Br   2.743624e+00   0.000000e+00   2.743624e+00  -1.007701e-05  -8.805205e-07   7.451690e-05
        Br   2.743624e+00   2.743624e+00   0.000000e+00  -1.007701e-05  -8.805205e-07   7.451690e-05
        Cd   2.743624e+00   2.743624e+00   2.743624e+00  -1.007701e-05  -8.805205e-07   7.451690e-05
        Cs   0.000000e+00   0.000000e+00   0.000000e+00  -1.007701e-05  -8.805205e-07   7.451690e-05
PRIMCOORD          2
         5         1
        Br   0.000000e+00   2.743624e+00   2.743624e+00  -1.929566e-05  -7.259990e-05  -3.467244e-06
        Br   2.743624e+00   0.000000e+00   2.743624e+00  -1.929566e-05  -7.259990e-05  -3.467244e-06
        Br   2.743624e+00   2.743624e+00   0.000000e+00  -1.929566e-05  -7.259990e-05  -3.467244e-06
        Cd   2.743624e+00   2.743624e+00   2.743624e+00  -1.929566e-05  -7.259990e-05  -3.467244e-06
        Cs   0.000000e+00   0.000000e+00   0.000000e+00  -1.929566e-05  -7.259990e-05  -3.467244e-06
PRIMCOORD          3
         5         1
        Br   0.000000e+00   2.743624e+00   2.743624e+00   7.198070e-05  -1.958492e-05   9.502611e-06
        Br   2.743624e+00   0.000000e+00   2.743624e+00   7.198070e-05  -1.958492e-05   9.502611e-06
        Br   2.743624e+00   2.743624e+00   0.000000e+00   7.198070e-05  -1.958492e-05   9.502611e-06
        Cd   2.743624e+00   2.743624e+00   2.743624e+00   7.198070e-05  -1.958492e-05   9.502611e-06
        Cs   0.000000e+00   0.000000e+00   0.000000e+00   7.198070e-05  -1.958492e-05   9.502611e-06
PRIMCOORD          4
         5         1
        Br   0.000000e+00   2.743624e+00   2.743624e+00  -7.911085e-06   3.723111e-20   3.567304e-05
        Br   2.743624e+00   0.000000e+00   2.743624e+00   4.582187e-06   9.196588e-20   3.567304e-05
        Br   2.743624e+00   2.743624e+00   0.000000e+00   4.582187e-06  -9.183036e-20  -6.158902e-05
        Cd   2.743624e+00   2.743624e+00   2.743624e+00  -1.360321e-05   1.285802e-19  -1.059031e-04
        Cs   0.000000e+00   0.000000e+00   0.000000e+00   1.075159e-05  -1.140069e-19   8.370281e-05
PRIMCOORD          5
         5         1
        Br   0.000000e+00   2.743624e+00   2.743624e+00   6.158902e-05   3.391631e-19   4.582187e-06
        Br   2.743624e+00   0.000000e+00   2.743624e+00  -3.567304e-05  -2.014070e-18   4.582187e-06
        Br   2.743624e+00   2.743624e+00   0.000000e+00  -3.567304e-05   1.051550e-18  -7.911085e-06
        Cd   2.743624e+00   2.743624e+00   2.743624e+00   1.059031e-04  -2.991344e-18  -1.360321e-05
        Cs   0.000000e+00   0.000000e+00   0.000000e+00  -8.370281e-05   2.943794e-18   1.075159e-05
PRIMCOORD          6
         5         1
        Br   0.000000e+00   2.743624e+00   2.743624e+00   1.887068e-18  -2.238926e-05  -5.702199e-19
        Br   2.743624e+00   0.000000e+00   2.743624e+00  -1.517233e-18   6.520171e-05   7.561919e-19
        Br   2.743624e+00   2.743624e+00   0.000000e+00  -1.579648e-18  -2.238926e-05  -1.524652e-19
        Cd   2.743624e+00   2.743624e+00   2.743624e+00   3.537296e-18   9.891451e-05  -2.618032e-19
        Cs   0.000000e+00   0.000000e+00   0.000000e+00  -2.003048e-18  -9.593615e-05   2.520407e-19
PRIMCOORD          7
         5         1
        Br   0.000000e+00   2.743624e+00   2.743624e+00   2.678363e-19   1.289282e-04  -1.073364e-05
        Br   2.743624e+00   0.000000e+00   2.743624e+00  -2.064025e-05  -8.867887e-20   1.073364e-05
        Br   2.743624e+00   2.743624e+00   0.000000e+00   2.064025e-05  -1.289282e-04  -7.360676e-21
        Cd   2.743624e+00   2.743624e+00   2.743624e+00   3.375391e-19  -1.160531e-19  -3.835871e-20
        Cs   0.000000e+00   0.000000e+00   0.000000e+00  -2.551957e-19  -1.777995e-19  -6.282109e-20
PRIMCOORD          8
         5         1
        Br   0.000000e+00   2.743624e+00   2.743624e+00  -6.069218e-20   2.020428e-05  -5.962559e-06
        Br   2.743624e+00   0.000000e+00   2.743624e+00   1.293057e-04  -1.657954e-20   5.962559e-06
        Br   2.743624e+00   2.743624e+00   0.000000e+00  -1.293057e-04  -2.020428e-05  -7.522455e-21
        Cd   2.743624e+00   2.743624e+00   2.743624e+00  -2.746172e-20  -4.096567e-20  -2.308945e-20
        Cs   0.000000e+00   0.000000e+00   0.000000e+00   3.532442e-20   4.723970e-20  -1.239568e-20
PRIMCOORD          9
         5         1
        Br   0.000000e+00   2.743624e+00   2.743624e+00   3.678763e-20  -1.153336e-05  -1.304337e-04
        Br   2.743624e+00   0.000000e+00   2.743624e+00  -4.212465e-06  -2.853542e-19   1.304337e-04
        Br   2.743624e+00   2.743624e+00   0.000000e+00   4.212465e-06   1.153336e-05  -8.902018e-20
        Cd   2.743624e+00   2.743624e+00   2.743624e+00   2.268599e-19  -4.960436e-19  -2.511028e-19
        Cs   0.000000e+00   0.000000e+00   0.000000e+00   3.779971e-19   5.408228e-19   1.522129e-19
PRIMCOORD         10
         5         1
        Br   0.000000e+00   2.743624e+00   2.743624e+00   7.187715e-07   7.682976e-20  -9.704597e-05
        Br   2.743624e+00   0.000000e+00   2.743624e+00   8.264905e-06   1.183070e-20  -9.704597e-05
        Br   2.743624e+00   2.743624e+00   0.000000e+00   8.264905e-06  -5.639479e-20  -8.439767e-06
        Cd   2.743624e+00   2.743624e+00   2.743624e+00  -3.367903e-06   2.128408e-20   3.954569e-05
        Cs   0.000000e+00   0.000000e+00   0.000000e+00  -7.521216e-06  -3.882755e-20   8.831361e-05
PRIMCOORD         11
         5         1
        Br   0.000000e+00   2.743624e+00   2.743624e+00  -8.439767e-06   3.876622e-19  -8.264905e-06
        Br   2.743624e+00   0.000000e+00   2.743624e+00  -9.704597e-05  -3.845861e-19  -8.264905e-06
        Br   2.743624e+00   2.743624e+00   0.000000e+00  -9.704597e-05   1.009909e-19  -7.187715e-07
        Cd   2.743624e+00   2.743624e+00   2.743624e+00   3.954569e-05  -5.746549e-19   3.367903e-06
        Cs   0.000000e+00   0.000000e+00   0.000000e+00   8.831361e-05   4.583485e-19   7.521216e-06
PRIMCOORD         12
         5         1
        Br   0.000000e+00   2.743624e+00   2.743624e+00   2.181382e-20   1.048759e-04   3.141478e-20
        Br   2.743624e+00   0.000000e+00   2.743624e+00   1.578404e-19  -3.580099e-05   4.440459e-20
        Br   2.743624e+00   2.743624e+00   0.000000e+00   6.812950e-20   1.048759e-04   7.664797e-22
        Cd   2.743624e+00   2.743624e+00   2.743624e+00  -2.061773e-20  -3.523185e-05  -8.353222e-21
        Cs   0.000000e+00   0.000000e+00   0.000000e+00  -3.777001e-20  -7.477960e-05  -1.139350e-20
PRIMCOORD         13
         5         1
        Br   0.000000e+00   2.743624e+00   2.743624e+00   1.573033e-04  -2.142317e-20   1.174691e-07
        Br   2.743624e+00   0.000000e+00   2.743624e+00  -2.699674e-05   1.147235e-19   1.174691e-07
        Br   2.743624e+00   2.743624e+00   0.000000e+00  -2.699674e-05   1.208596e-20  -6.844635e-07
        Cd   2.743624e+00   2.743624e+00   2.743624e+00  -7.596006e-05  -2.860831e-20   3.305199e-07
        Cs   0.000000e+00   0.000000e+00   0.000000e+00   2.135280e-06  -2.666945e-20  -9.291103e-09
PRIMCOORD         14
         5         1
        Br   0.000000e+00   2.743624e+00   2.743624e+00  -6.844635e-07  -2.150718e-22   2.699674e-05
        Br   2.743624e+00   0.000000e+00   2.743624e+00   1.174691e-07  -6.553333e-21   2.699674e-05
        Br   2.743624e+00   2.743624e+00   0.000000e+00   1.174691e-07   7.026529e-22  -1.573033e-04
        Cd   2.743624e+00   2.743624e+00   2.743624e+00   3.305199e-07   5.532220e-21   7.596006e-05
        Cs   0.000000e+00   0.000000e+00   0.000000e+00  -9.291103e-09  -2.174775e-21  -2.135280e-06
PRIMCOORD         15
         5         1
        Br   0.000000e+00   2.743624e+00   2.743624e+00   7.734846e-20   2.896530e-06  -3.838269e-20
        Br   2.743624e+00   0.000000e+00   2.743624e+00  -1.279776e-20  -1.521163e-04   2.964679e-20
        Br   2.743624e+00   2.743624e+00   0.000000e+00   2.374235e-21   2.896530e-06  -1.566723e-21
        Cd   2.743624e+00   2.743624e+00   2.743624e+00  -8.330670e-20   8.786579e-05  -3.807749e-22
        Cs   0.000000e+00   0.000000e+00   0.000000e+00  -7.383273e-20   1.365450e-05   6.300850e-23
PRIMCOORD         16
         5         1
        Br   0.000000e+00   2.743624e+00   2.743624e+00  -1.037562e-06  -4.917542e-19   7.515748e-05
        Br   2.743624e+00   0.000000e+00   2.743624e+00  -1.031282e-06  -4.831996e-19   7.518421e-05
        Br   2.743624e+00   2.743624e+00   0.000000e+00  -1.037773e-06  -5.171016e-19   7.514219e-05
        Cd   2.743624e+00   2.743624e+00   2.743624e+00  -1.037687e-06  -4.811915e-19   7.515124e-05
        Cs   0.000000e+00   0.000000e+00   0.000000e+00  -1.031584e-06  -5.104184e-19   7.520621e-05
PRIMCOORD         17
         5         1
        Br   0.000000e+00   2.743624e+00   2.743624e+00  -7.406540e-05   7.330782e-17  -1.052860e-06
        Br   2.743624e+00   0.000000e+00   2.743624e+00  -7.361713e-05   7.287375e-17  -1.053235e-06
        Br   2.743624e+00   2.743624e+00   0.000000e+00  -7.408047e-05   7.330877e-17  -1.052646e-06
        Cd   2.743624e+00   2.743624e+00   2.743624e+00  -7.407432e-05   7.306878e-17  -1.052773e-06
        Cs   0.000000e+00   0.000000e+00   0.000000e+00  -7.363867e-05   7.312113e-17  -1.053543e-06
PRIMCOORD         18
         5         1
        Br   0.000000e+00   2.743624e+00   2.743624e+00  -7.301919e-17  -7.504395e-05  -1.561338e-18
        Br   2.743624e+00   0.000000e+00   2.743624e+00  -7.226946e-17  -7.461076e-05  -1.467542e-18
        Br   2.743624e+00   2.743624e+00   0.000000e+00  -7.271924e-17  -7.504395e-05  -1.541175e-18
        Cd   2.743624e+00   2.743624e+00   2.743624e+00  -7.319633e-17  -7.477264e-05  -1.539131e-18
        Cs   0.000000e+00   0.000000e+00   0.000000e+00  -7.218708e-17  -7.495046e-05  -1.524357e-18
PRIMCOORD         19
         5         1
        Br   0.000000e+00   2.743624e+00   2.743624e+00   1.214223e-05  -2.092463e-19  -3.519703e-05
        Br   2.743624e+00   0.000000e+00   2.743624e+00  -7.034375e-06   4.121563e-19  -3.529855e-05
        Br   2.743624e+00   2.743624e+00   0.000000e+00  -7.020929e-06  -1.970682e-19   6.087092e-05
        Cd   2.743624e+00   2.743624e+00   2.743624e+00   2.087741e-05   6.462918e-19   1.046618e-04
        Cs   0.000000e+00   0.000000e+00   0.000000e+00  -1.649328e-05  -7.499097e-19  -8.276342e-05
PRIMCOORD         20
         5         1
        Br   0.000000e+00   2.743624e+00   2.743624e+00  -6.090210e-05   6.112723e-19  -7.017334e-06
        Br   2.743624e+00   0.000000e+00   2.743624e+00   3.528250e-05  -1.078984e-18  -7.037574e-06
        Br   2.743624e+00   2.743624e+00   0.000000e+00   3.521506e-05   6.888371e-19   1.213601e-05
        Cd   2.743624e+00   2.743624e+00   2.743624e+00  -1.047154e-04  -1.740091e-18   2.086672e-05
        Cs   0.000000e+00   0.000000e+00   0.000000e+00   8.272580e-05   2.198188e-18  -1.650078e-05
PRIMCOORD         21
         5         1
        Br   0.000000e+00   2.743624e+00   2.743624e+00  -1.341688e-18  -2.198065e-05  -1.208011e-19
        Br   2.743624e+00   0.000000e+00   2.743624e+00   7.038020e-19   6.498024e-05   3.093088e-19
        Br   2.743624e+00   2.743624e+00   0.000000e+00   9.594776e-19  -2.198065e-05  -1.841960e-19
        Cd   2.743624e+00   2.743624e+00   2.743624e+00  -2.321401e-18   9.813567e-05  -3.448962e-19
        Cs   0.000000e+00   0.000000e+00   0.000000e+00   1.846322e-18  -9.528093e-05   2.491665e-19
PRIMCOORD         22
         5         1
        Br   0.000000e+00   2.743624e+00   2.743624e+00  -2.660352e-11  -2.451642e-15   1.309975e-04
        Br   2.743624e+00   0.000000e+00   2.743624e+00  -3.334936e-07   7.010587e-20  -1.309550e-04
        Br   2.743624e+00   2.743624e+00   0.000000e+00   3.336175e-07   2.451482e-15  -1.044608e-08
        Cd   2.743624e+00   2.743624e+00   2.743624e+00  -1.578740e-10   1.137781e-19  -6.199043e-08
        Cs   0.000000e+00   0.000000e+00   0.000000e+00  -5.020106e-11  -1.714613e-19  -1.971277e-08
PRIMCOORD         23
         5         1
        Br   0.000000e+00   2.743624e+00   2.743624e+00   1.044656e-08  -5.199956e-15   3.336020e-07
        Br   2.743624e+00   0.000000e+00   2.743624e+00   1.309549e-04   1.276363e-19  -3.334940e-07
        Br   2.743624e+00   2.743624e+00   0.000000e+00  -1.310036e-04   5.199855e-15  -2.660229e-11
        Cd   2.743624e+00   2.743624e+00   2.743624e+00   6.199331e-08   1.757385e-19  -1.578667e-10
        Cs   0.000000e+00   0.000000e+00   0.000000e+00   1.971275e-08  -8.493997e-20  -5.020112e-11
PRIMCOORD         24
         5         1
        Br   0.000000e+00   2.743624e+00   2.743624e+00   3.945346e-19   1.309515e-04   2.465321e-15
        Br   2.743624e+00   0.000000e+00   2.743624e+00   5.193703e-15  -9.654349e-21  -2.464656e-15
        Br   2.743624e+00   2.743624e+00   0.000000e+00  -5.195821e-15  -1.309515e-04  -2.033495e-19
        Cd   2.743624e+00   2.743624e+00   2.743624e+00   2.466534e-18  -3.615185e-20  -1.174840e-18
        Cs   0.000000e+00   0.000000e+00   0.000000e+00   9.213569e-19  -1.465463e-19  -4.265177e-19
PRIMCOORD         25
         5         1
        Br   0.000000e+00   2.743624e+00   2.743624e+00   7.164233e-06   2.389275e-19  -5.176844e-05
        Br   2.743624e+00   0.000000e+00   2.743624e+00   8.252479e-05  -1.550134e-20  -5.186399e-05
        Br   2.743624e+00   2.743624e+00   0.000000e+00   8.239577e-05  -9.820511e-20  -4.501217e-06
        Cd   2.743624e+00   2.743624e+00   2.743624e+00  -3.359602e-05  -2.611903e-20   2.110804e-05
        Cs   0.000000e+00   0.000000e+00   0.000000e+00  -7.503079e-05  -8.833934e-21   4.715427e-05
PRIMCOORD         26
         5         1
        Br   0.000000e+00   2.743624e+00   2.743624e+00   4.502303e-06   7.384952e-20   8.237588e-05
        Br   2.743624e+00   0.000000e+00   2.743624e+00   5.186202e-05  -1.280693e-21   8.252792e-05
        Br   2.743624e+00   2.743624e+00   0.000000e+00   5.178094e-05  -3.384091e-22   7.162505e-06
        Cd   2.743624e+00   2.743624e+00   2.743624e+00  -2.111314e-05  -8.416147e-21  -3.358791e-05
        Cs   0.000000e+00   0.000000e+00   0.000000e+00  -4.715248e-05   1.024216e-20  -7.503364e-05
PRIMCOORD         27
         5         1
        Br   0.000000e+00   2.743624e+00   2.743624e+00   1.105392e-20   1.048269e-04   3.126681e-20
        Br   2.743624e+00   0.000000e+00   2.743624e+00  -2.448496e-22  -3.583662e-05  -2.202399e-21
        Br   2.743624e+00   2.743624e+00   0.000000e+00  -9.377812e-20   1.048269e-04  -4.137014e-21
        Cd   2.743624e+00   2.743624e+00   2.743624e+00  -1.333411e-20  -3.526768e-05  -1.703536e-21
        Cs   0.000000e+00   0.000000e+00   0.000000e+00   9.119929e-20  -7.475183e-05  -3.794049e-21
PRIMCOORD         28
         5         1
        Br   0.000000e+00   2.743624e+00   2.743624e+00   1.572959e-04  -1.950692e-20   1.817419e-08
        Br   2.743624e+00   0.000000e+00   2.743624e+00  -2.695592e-05  -1.124248e-19   1.817350e-08
        Br   2.743624e+00   2.743624e+00   0.000000e+00  -2.699568e-05  -2.059730e-20  -1.058956e-07
        Cd   2.743624e+00   2.743624e+00   2.743624e+00  -7.595227e-05   1.103405e-19   5.113301e-08
        Cs   0.000000e+00   0.000000e+00   0.000000e+00   2.132028e-06   1.902320e-20  -1.437399e-09
PRIMCOORD         29
         5         1
        Br   0.000000e+00   2.743624e+00   2.743624e+00  -1.059415e-07   1.910966e-20   2.698400e-05
        Br   2.743624e+00   0.000000e+00   2.743624e+00   1.815527e-08   1.427658e-20   2.698298e-05
        Br   2.743624e+00   2.743624e+00   0.000000e+00   1.818205e-08   1.079525e-20  -1.572278e-04
        Cd   2.743624e+00   2.743624e+00   2.743624e+00   5.115515e-08   2.988720e-20   7.591941e-05
        Cs   0.000000e+00   0.000000e+00   0.000000e+00  -1.435957e-09   1.367061e-21  -2.134169e-06
PRIMCOORD         30
         5         1
        Br   0.000000e+00   2.743624e+00   2.743624e+00  -1.768015e-19   2.524814e-06  -1.007805e-20
        Br   2.743624e+00   0.000000e+00   2.743624e+00   2.245824e-20  -1.302125e-04   9.654674e-21
        Br   2.743624e+00   2.743624e+00   0.000000e+00   2.760497e-20   2.524814e-06   6.921863e-21
        Cd   2.743624e+00   2.743624e+00   2.743624e+00   1.112178e-19   7.662070e-05  -1.854657e-21
        Cs   0.000000e+00   0.000000e+00   0.000000e+00   6.802172e-21   1.168782e-05   5.458016e-23
PRIMCOORD         31
         5         1
        Br   0.000000e+00   2.743624e+00   2.743624e+00  -4.627952e-06   3.563102e-18   7.491565e-05
        Br   2.743624e+00   0.000000e+00   2.743624e+00  -4.631694e-06   3.503159e-18   7.502250e-05
        Br   2.743624e+00   2.743624e+00   0.000000e+00  -4.631713e-06   3.521831e-18   7.485482e-05
        Cd   2.743624e+00   2.743624e+00   2.743624e+00  -4.630182e-06   3.475643e-18   7.489088e-05
        Cs   0.000000e+00   0.000000e+00   0.000000e+00  -4.637111e-06   3.618008e-18   7.511025e-05
PRIMCOORD         32
         5         1
        Br   0.000000e+00   2.743624e+00   2.743624e+00  -7.494330e-05   3.063865e-17  -4.626245e-06
        Br   2.743624e+00   0.000000e+00   2.743624e+00  -7.500389e-05   3.038324e-17  -4.632843e-06
        Br   2.743624e+00   2.743624e+00   0.000000e+00  -7.500420e-05   3.065347e-17  -4.622488e-06
        Cd   2.743624e+00   2.743624e+00   2.743624e+00  -7.497940e-05   3.031632e-17  -4.624715e-06
        Cs   0.000000e+00   0.000000e+00   0.000000e+00  -7.509161e-05   3.080741e-17  -4.638262e-06
PRIMCOORD         33
         5         1
        Br   0.000000e+00   2.743624e+00   2.743624e+00  -3.053200e-17  -7.513998e-05   1.595674e-18
        Br   2.743624e+00   0.000000e+00   2.743624e+00  -3.068103e-17  -7.457562e-05   1.696799e-18
        Br   2.743624e+00   2.743624e+00   0.000000e+00  -3.059964e-17  -7.513998e-05   1.629281e-18
        Cd   2.743624e+00   2.743624e+00   2.743624e+00  -3.052914e-17  -7.405937e-05   1.651000e-18
        Cs   0.000000e+00   0.000000e+00   0.000000e+00  -3.070363e-17  -7.593867e-05   1.666751e-18
PRIMCOORD         34
         5         1
        Br   0.000000e+00   2.743624e+00   2.743624e+00   6.858351e-06  -5.179647e-20  -3.544235e-05
        Br   2.743624e+00   0.000000e+00   2.743624e+00  -3.988381e-06   1.066499e-19  -3.585339e-05
        Br   2.743624e+00   2.743624e+00   0.000000e+00  -3.945367e-06  -3.027499e-20   6.161052e-05
        Cd   2.743624e+00   2.743624e+00   2.743624e+00   1.179006e-05   1.702734e-19   1.059134e-04
        Cs   0.000000e+00   0.000000e+00   0.000000e+00  -9.330953e-06  -1.798858e-19  -8.388022e-05
PRIMCOORD         35
         5         1
        Br   0.000000e+00   2.743624e+00   2.743624e+00  -6.164933e-05   2.659924e-19  -3.942883e-06
        Br   2.743624e+00   0.000000e+00   2.743624e+00   3.585134e-05  -1.060863e-18  -3.988610e-06
        Br   2.743624e+00   2.743624e+00   0.000000e+00   3.546468e-05   4.040438e-19   6.854033e-06
        Cd   2.743624e+00   2.743624e+00   2.743624e+00  -1.059802e-04  -1.688319e-18   1.178263e-05
        Cs   0.000000e+00   0.000000e+00   0.000000e+00   8.387541e-05   1.586835e-18  -9.331488e-06
PRIMCOORD         36
         5         1
        Br   0.000000e+00   2.743624e+00   2.743624e+00  -2.769741e-19  -1.297213e-05  -6.148605e-20
        Br   2.743624e+00   0.000000e+00   2.743624e+00   4.347329e-19   4.279797e-05   8.983476e-20
        Br   2.743624e+00   2.743624e+00   0.000000e+00   3.544402e-19  -1.297213e-05  -3.239707e-20
        Cd   2.743624e+00   2.743624e+00   2.743624e+00  -5.908203e-19   5.979822e-05  -1.689486e-20
        Cs   0.000000e+00   0.000000e+00   0.000000e+00   4.702453e-19  -6.211318e-05   6.370203e-20
PRIMCOORD         37
         5         1
        Br   0.000000e+00   2.743624e+00   2.743624e+00  -4.171479e-08   3.449741e-16   5.336725e-11
        Br   2.743624e+00   0.000000e+00   2.743624e+00  -1.307903e-04  -6.337938e-21  -5.329811e-11
        Br   2.743624e+00   2.743624e+00   0.000000e+00   1.309651e-04  -3.450022e-16  -1.699843e-14
        Cd   2.743624e+00   2.743624e+00   2.743624e+00  -2.475534e-07   5.377340e-21  -1.008761e-13
        Cs   0.000000e+00   0.000000e+00   0.000000e+00  -7.885211e-08  -7.349890e-20  -3.213286e-14
PRIMCOORD         38
         5         1
        Br   0.000000e+00   2.743624e+00   2.743624e+00   1.699913e-14  -5.743809e-16   1.309600e-04
        Br   2.743624e+00   0.000000e+00   2.743624e+00   5.329810e-11   9.959553e-21  -1.307904e-04
        Br   2.743624e+00   2.743624e+00   0.000000e+00  -5.336932e-11   5.742310e-16  -4.171317e-08
        Cd   2.743624e+00   2.743624e+00   2.743624e+00   1.008800e-13   3.636332e-20  -2.475438e-07
        Cs   0.000000e+00   0.000000e+00   0.000000e+00   3.213284e-14  -1.007594e-19  -7.885213e-08
PRIMCOORD         39
         5         1
        Br   0.000000e+00   2.743624e+00   2.743624e+00   1.079562e-19   1.307942e-04   5.749700e-16
        Br   2.743624e+00   0.000000e+00   2.743624e+00   3.447056e-16  -1.248166e-19  -5.741984e-16
        Br   2.743624e+00   2.743624e+00   0.000000e+00  -3.453375e-16  -1.307942e-04  -1.841423e-19
        Cd   2.743624e+00   2.743624e+00   2.743624e+00   6.841432e-19  -1.650715e-19  -1.107803e-18
        Cs   0.000000e+00   0.000000e+00   0.000000e+00   4.441766e-19  -3.487429e-21  -4.235193e-19
PRIMCOORD         40
         5         1
        Br   0.000000e+00   2.743624e+00   2.743624e+00  -2.128663e-06  -1.375934e-19   9.383132e-05
        Br   2.743624e+00   0.000000e+00   2.743624e+00  -2.467997e-05   3.757566e-20   9.452612e-05
        Br   2.743624e+00   2.743624e+00   0.000000e+00  -2.449655e-05   1.387382e-19   8.153610e-06
        Cd   2.743624e+00   2.743624e+00   2.743624e+00   1.000624e-05   4.725803e-20  -3.832781e-05
        Cs   0.000000e+00   0.000000e+00   0.000000e+00   2.237773e-05  -6.193181e-20  -8.570840e-05
PRIMCOORD         41
         5         1
        Br   0.000000e+00   2.743624e+00   2.743624e+00  -8.152934e-06  -7.291509e-20  -2.449858e-05
        Br   2.743624e+00   0.000000e+00   2.743624e+00  -9.452604e-05   5.299918e-20  -2.467999e-05
        Br   2.743624e+00   2.743624e+00   0.000000e+00  -9.382355e-05   3.621745e-19  -2.128840e-06
        Cd   2.743624e+00   2.743624e+00   2.743624e+00   3.832463e-05   5.875317e-20   1.000707e-05
        Cs   0.000000e+00   0.000000e+00   0.000000e+00   8.570833e-05  -2.154797e-19   2.237775e-05
PRIMCOORD         42
         5         1
        Br   0.000000e+00   2.743624e+00   2.743624e+00  -1.556624e-20   1.045349e-04   7.019624e-20
        Br   2.743624e+00   0.000000e+00   2.743624e+00   1.665151e-19  -3.594003e-05  -1.455753e-20
        Br   2.743624e+00   2.743624e+00   0.000000e+00   1.508335e-19   1.045349e-04   8.076854e-21
        Cd   2.743624e+00   2.743624e+00   2.743624e+00  -1.004263e-19  -3.532696e-05  -9.965324e-21
        Cs   0.000000e+00   0.000000e+00   0.000000e+00  -1.025375e-19  -7.465964e-05  -1.279600e-20
PRIMCOORD         43
         5         1
        Br   0.000000e+00   2.743624e+00   2.743624e+00   1.572298e-04   1.011729e-20   5.471780e-08
        Br   2.743624e+00   0.000000e+00   2.743624e+00  -2.692858e-05  -4.961586e-20   5.470953e-08
        Br   2.743624e+00   2.743624e+00   0.000000e+00  -2.698499e-05   6.398820e-20  -3.188168e-07
        Cd   2.743624e+00   2.743624e+00   2.743624e+00  -7.590780e-05   6.013586e-20   1.539192e-07
        Cs   0.000000e+00   0.000000e+00   0.000000e+00   2.129798e-06  -9.204319e-21  -4.327010e-09
PRIMCOORD         44
         5         1
        Br   0.000000e+00   2.743624e+00   2.743624e+00  -3.192901e-07   4.873027e-21   2.694498e-05
        Br   2.743624e+00   0.000000e+00   2.743624e+00   5.468449e-08  -1.653653e-20   2.694091e-05
        Br   2.743624e+00   2.743624e+00   0.000000e+00   5.479904e-08   1.999113e-21  -1.569967e-04
        Cd   2.743624e+00   2.743624e+00   2.743624e+00   1.541477e-07  -5.409991e-22   7.579527e-05
        Cs   0.000000e+00   0.000000e+00   0.000000e+00  -4.325029e-09   1.118746e-20  -2.130773e-06
PRIMCOORD         45
         5         1
        Br   0.000000e+00   2.743624e+00   2.743624e+00  -3.833685e-20   2.228449e-06  -1.452553e-20
        Br   2.743624e+00   0.000000e+00   2.743624e+00   1.834869e-20  -1.108336e-04   1.466400e-20
        Br   2.743624e+00   2.743624e+00   0.000000e+00   3.084140e-20   2.228449e-06   3.823163e-21
        Cd   2.743624e+00   2.743624e+00   2.743624e+00   8.807850e-20   6.770874e-05  -6.196573e-22
        Cs   0.000000e+00   0.000000e+00   0.000000e+00   1.846719e-21   9.947072e-06   7.523517e-23
PRIMCOORD         46
         5         1
        Br   0.000000e+00   2.743624e+00   2.743624e+00  -7.296892e-05   3.312727e-18   1.620606e-05
        Br   2.743624e+00   0.000000e+00   2.743624e+00  -7.334146e-05   3.471368e-18   1.625827e-05
        Br   2.743624e+00   2.743624e+00   0.000000e+00  -7.310201e-05   3.153679e-18   1.617655e-05
        Cd   2.743624e+00   2.743624e+00   2.743624e+00  -7.304798e-05   3.317659e-18   1.619408e-05
        Cs   0.000000e+00   0.000000e+00   0.000000e+00  -7.353430e-05   3.401969e-18   1.630102e-05
PRIMCOORD         47
         5         1
        Br   0.000000e+00   2.743624e+00   2.743624e+00  -1.617568e-05   4.014712e-19  -7.310592e-05
        Br   2.743624e+00   0.000000e+00   2.743624e+00  -1.625827e-05   4.418219e-19  -7.334147e-05
        Br   2.743624e+00   2.743624e+00   0.000000e+00  -1.620519e-05   3.910507e-19  -7.297282e-05
        Cd   2.743624e+00   2.743624e+00   2.743624e+00  -1.619321e-05   4.230298e-19  -7.305189e-05
        Cs   0.000000e+00   0.000000e+00   0.000000e+00  -1.630102e-05   3.994893e-19  -7.353431e-05
PRIMCOORD         48
         5         1
        Br   0.000000e+00   2.743624e+00   2.743624e+00  -3.642284e-18  -7.220542e-05   3.129876e-19
        Br   2.743624e+00   0.000000e+00   2.743624e+00  -3.806958e-18  -7.221892e-05   3.695606e-19
        Br   2.743624e+00   2.743624e+00   0.000000e+00  -3.983615e-18  -7.220542e-05   3.199186e-19
        Cd   2.743624e+00   2.743624e+00   2.743624e+00  -3.552883e-18  -6.989076e-05   2.909529e-19
        Cs   0.000000e+00   0.000000e+00   0.000000e+00  -3.906906e-18  -7.520634e-05   3.566370e-19
PRIMCOORD         49
         5         1
        Br   0.000000e+00   2.743624e+00   2.743624e+00  -2.475413e-05  -1.794528e-19   3.232549e-05
        Br   2.743624e+00   0.000000e+00   2.743624e+00   1.450657e-05   4.832551e-19   3.317640e-05
        Br   2.743624e+00   2.743624e+00   0.000000e+00   1.411821e-05  -1.861654e-19  -5.667783e-05
        Cd   2.743624e+00   2.743624e+00   2.743624e+00  -4.254084e-05   7.238166e-19  -9.740283e-05
        Cs   0.000000e+00   0.000000e+00   0.000000e+00   3.381556e-05  -7.626818e-19   7.733590e-05
PRIMCOORD         50
         5         1
        Br   0.000000e+00   2.743624e+00   2.743624e+00   5.660844e-05   3.466598e-19   1.413551e-05
        Br   2.743624e+00   0.000000e+00   2.743624e+00  -3.317403e-05  -4.195289e-19   1.450761e-05
        Br   2.743624e+00   2.743624e+00   0.000000e+00  -3.228592e-05   2.783789e-19  -2.478447e-05
        Cd   2.743624e+00   2.743624e+00   2.743624e+00   9.728358e-05  -6.375852e-19  -4.259298e-05
        Cs   0.000000e+00   0.000000e+00   0.000000e+00  -7.733037e-05   9.114755e-19   3.381798e-05
PRIMCOORD         51
         5         1
        Br   0.000000e+00   2.743624e+00   2.743624e+00  -7.348807e-19   2.052757e-05   2.513816e-19
        Br   2.743624e+00   0.000000e+00   2.743624e+00  -1.527935e-20  -6.548288e-05   2.235726e-20
        Br   2.743624e+00   2.743624e+00   0.000000e+00   2.075619e-19   2.052757e-05  -2.427336e-19
        Cd   2.743624e+00   2.743624e+00   2.743624e+00  -1.159998e-18  -9.996308e-05  -4.080013e-19
        Cs   0.000000e+00   0.000000e+00   0.000000e+00   8.776526e-19   9.344503e-05   3.312454e-19
PRIMCOORD         52
         5         1
        Br   0.000000e+00   2.743624e+00   2.743624e+00  -9.345851e-08   4.140240e-16  -9.022630e-07
        Br   2.743624e+00   0.000000e+00   2.743624e+00  -1.304994e-04   5.674655e-20   8.996331e-07
        Br   2.743624e+00   2.743624e+00   0.000000e+00   1.307142e-04  -4.139925e-16   6.451033e-10
        Cd   2.743624e+00   2.743624e+00   2.743624e+00  -5.546316e-07   9.182146e-20   3.828380e-09
        Cs   0.000000e+00   0.000000e+00   0.000000e+00  -1.773955e-07  -1.204545e-19   1.222924e-09
PRIMCOORD         53
         5         1
        Br   0.000000e+00   2.743624e+00   2.743624e+00  -6.442254e-10  -3.428095e-16   1.308923e-04
        Br   2.743624e+00   0.000000e+00   2.743624e+00  -8.995546e-07   4.112973e-20  -1.305108e-04
        Br   2.743624e+00   2.743624e+00   0.000000e+00   9.010350e-07   3.426939e-16  -9.358587e-08
        Cd   2.743624e+00   2.743624e+00   2.743624e+00  -3.823170e-09   9.165111e-20  -5.553875e-07
        Cs   0.000000e+00   0.000000e+00   0.000000e+00  -1.222817e-09  -1.319750e-19  -1.774110e-07
PRIMCOORD         54
         5         1
        Br   0.000000e+00   2.743624e+00   2.743624e+00  -3.547142e-19  -1.306279e-04  -3.457871e-16
        Br   2.743624e+00   0.000000e+00   2.743624e+00  -4.197029e-16   2.079946e-19   3.450138e-16
        Br   2.743624e+00   2.743624e+00   0.000000e+00   4.295527e-16   1.306279e-04   2.485033e-19
        Cd   2.743624e+00   2.743624e+00   2.743624e+00  -1.860253e-18   2.272898e-19   1.478119e-18
        Cs   0.000000e+00   0.000000e+00   0.000000e+00  -6.754836e-19   2.159262e-19   5.298635e-19
PRIMCOORD         55
         5         1
        Br   0.000000e+00   2.743624e+00   2.743624e+00  -1.023773e-06  -5.062933e-20   9.572513e-05
        Br   2.743624e+00   0.000000e+00   2.743624e+00  -1.201147e-05   1.110371e-20   9.732802e-05