 3.140051 0.000000 0.000000
 0.000000 3.140051 0.000000
 0.000000 -0.000000 3.140051
 -2.04510 -0.00000 0.00000
 0.00000 -0.89135 0.00000
 0.00000 -0.00000 -0.89135
 -0.89135 -0.00000 -0.00000
 0.00000 -2.04510 -0.00000
 0.00000 -0.00000 -0.89135
 -0.89135 -0.00000 -0.00000
 0.00000 -0.89135 -0.00000
 -0.00000 0.00000 -2.04510
 2.47497 -0.00000 -0.00000
 -0.00000 2.47497 0.00000
 -0.00000 0.00000 2.47497
 1.35282 0.00000 -0.00000
 0.00000 1.35282 0.00000
 -0.00000 0.00000 1.35282
