ANIMSTEPS 3750
CRYSTAL
PRIMVEC
   5.647018e+00   0.000000e+00   0.000000e+00
   0.000000e+00   5.647018e+00   0.000000e+00
   0.000000e+00   0.000000e+00   5.647018e+00
PRIMCOORD          1
         5         1
        Br   0.000000e+00   2.823509e+00   2.823509e+00  -1.753697e-05   7.705167e-05  -2.004311e-05
        Br   2.823509e+00   0.000000e+00   2.823509e+00  -1.753697e-05   7.705167e-05  -2.004311e-05
        Br   2.823509e+00   2.823509e+00   0.000000e+00  -1.753697e-05   7.705167e-05  -2.004311e-05
        Ca   2.823509e+00   2.823509e+00   2.823509e+00  -1.753697e-05   7.705167e-05  -2.004311e-05
        Cs   0.000000e+00   0.000000e+00   0.000000e+00  -1.753697e-05   7.705167e-05  -2.004311e-05
PRIMCOORD          2
         5         1
        Br   0.000000e+00   2.823509e+00   2.823509e+00  -7.954552e-05  -1.781969e-05   1.095176e-06
        Br   2.823509e+00   0.000000e+00   2.823509e+00  -7.954552e-05  -1.781969e-05   1.095176e-06
        Br   2.823509e+00   2.823509e+00   0.000000e+00  -7.954552e-05  -1.781969e-05   1.095176e-06
        Ca   2.823509e+00   2.823509e+00   2.823509e+00  -7.954552e-05  -1.781969e-05   1.095176e-06
        Cs   0.000000e+00   0.000000e+00   0.000000e+00  -7.954552e-05  -1.781969e-05   1.095176e-06
PRIMCOORD          3
         5         1
        Br   0.000000e+00   2.823509e+00   2.823509e+00   3.345953e-06  -1.979218e-05  -7.901459e-05
        Br   2.823509e+00   0.000000e+00   2.823509e+00   3.345953e-06  -1.979218e-05  -7.901459e-05
        Br   2.823509e+00   2.823509e+00   0.000000e+00   3.345953e-06  -1.979218e-05  -7.901459e-05
        Ca   2.823509e+00   2.823509e+00   2.823509e+00   3.345953e-06  -1.979218e-05  -7.901459e-05
        Cs   0.000000e+00   0.000000e+00   0.000000e+00   3.345953e-06  -1.979218e-05  -7.901459e-05
PRIMCOORD          4
         5         1
        Br   0.000000e+00   2.823509e+00   2.823509e+00  -2.743045e-06   2.730878e-19   5.833879e-05
        Br   2.823509e+00   0.000000e+00   2.823509e+00  -2.935073e-06   2.022021e-19   5.833879e-05
        Br   2.823509e+00   2.823509e+00   0.000000e+00  -2.935073e-06  -5.130302e-20   5.452195e-05
        Ca   2.823509e+00   2.823509e+00   2.823509e+00  -2.529390e-06   2.499840e-19   5.027525e-05
        Cs   0.000000e+00   0.000000e+00   0.000000e+00   5.940873e-06  -1.685023e-19  -1.180834e-04
PRIMCOORD          5
         5         1
        Br   0.000000e+00   2.823509e+00   2.823509e+00   5.452195e-05   2.344079e-18   2.935073e-06
        Br   2.823509e+00   0.000000e+00   2.823509e+00   5.833879e-05  -4.594045e-19   2.935073e-06
        Br   2.823509e+00   2.823509e+00   0.000000e+00   5.833879e-05  -2.355416e-18   2.743045e-06
        Ca   2.823509e+00   2.823509e+00   2.823509e+00   5.027525e-05  -6.148091e-19   2.529390e-06
        Cs   0.000000e+00   0.000000e+00   0.000000e+00  -1.180834e-04   6.890151e-19  -5.940873e-06
PRIMCOORD          6
         5         1
        Br   0.000000e+00   2.823509e+00   2.823509e+00  -7.654353e-19   1.304657e-04   1.177734e-05
        Br   2.823509e+00   0.000000e+00   2.823509e+00   1.925442e-06   8.462977e-20  -1.177734e-05
        Br   2.823509e+00   2.823509e+00   0.000000e+00  -1.925442e-06  -1.304657e-04  -6.281347e-20
        Ca   2.823509e+00   2.823509e+00   2.823509e+00  -7.313308e-19   1.048693e-19  -5.772191e-20
        Cs   0.000000e+00   0.000000e+00   0.000000e+00   1.608302e-18   9.071775e-20   9.899773e-20
PRIMCOORD          7
         5         1
        Br   0.000000e+00   2.823509e+00   2.823509e+00   8.478822e-20   2.134259e-06  -2.230109e-06
        Br   2.823509e+00   0.000000e+00   2.823509e+00  -1.309740e-04  -9.217792e-20   2.230109e-06
        Br   2.823509e+00   2.823509e+00   0.000000e+00   1.309740e-04  -2.134259e-06   1.396505e-20
        Ca   2.823509e+00   2.823509e+00   2.823509e+00   8.263368e-20  -1.311580e-19   1.391313e-20
        Cs   0.000000e+00   0.000000e+00   0.000000e+00  -2.217849e-19   1.682351e-19   4.720395e-22
PRIMCOORD          8
         5         1
        Br   0.000000e+00   2.823509e+00   2.823509e+00   2.967760e-18  -1.174130e-05   1.304609e-04
        Br   2.823509e+00   0.000000e+00   2.823509e+00  -2.412699e-06  -2.823846e-19  -1.304609e-04
        Br   2.823509e+00   2.823509e+00   0.000000e+00   2.412699e-06   1.174130e-05   8.045324e-19
        Ca   2.823509e+00   2.823509e+00   2.823509e+00   2.722859e-18  -3.825600e-19   7.913894e-19
        Cs   0.000000e+00   0.000000e+00   0.000000e+00  -6.427535e-18   4.520090e-19  -1.572226e-18
PRIMCOORD          9
         5         1
        Br   0.000000e+00   2.823509e+00   2.823509e+00   2.692344e-19   2.637514e-05   2.546814e-19
        Br   2.823509e+00   0.000000e+00   2.823509e+00  -2.197367e-20   8.109398e-05  -6.339929e-19
        Br   2.823509e+00   2.823509e+00   0.000000e+00   3.902331e-19   2.637514e-05  -1.141184e-19
        Ca   2.823509e+00   2.823509e+00   2.823509e+00   3.453482e-19   1.046191e-04  -1.049133e-19
        Cs   0.000000e+00   0.000000e+00   0.000000e+00  -8.039200e-19  -1.120127e-04   1.232232e-19
PRIMCOORD         10
         5         1
        Br   0.000000e+00   2.823509e+00   2.823509e+00  -1.080354e-04  -2.015622e-19   3.463883e-07
        Br   2.823509e+00   0.000000e+00   2.823509e+00   8.403229e-05  -1.175728e-20   3.463883e-07
        Br   2.823509e+00   2.823509e+00   0.000000e+00   8.403229e-05   6.562662e-20  -4.453314e-07
        Ca   2.823509e+00   2.823509e+00   2.823509e+00  -1.302961e-04  -5.218019e-22  -5.370916e-07
        Cs   0.000000e+00   0.000000e+00   0.000000e+00   3.200945e-06  -1.519682e-19   1.319457e-08
PRIMCOORD         11
         5         1
        Br   0.000000e+00   2.823509e+00   2.823509e+00  -4.453314e-07   1.427447e-20  -8.403229e-05
        Br   2.823509e+00   0.000000e+00   2.823509e+00   3.463883e-07  -4.103805e-20  -8.403229e-05
        Br   2.823509e+00   2.823509e+00   0.000000e+00   3.463883e-07   8.221664e-21   1.080354e-04
        Ca   2.823509e+00   2.823509e+00   2.823509e+00  -5.370916e-07  -5.133391e-20   1.302961e-04
        Cs   0.000000e+00   0.000000e+00   0.000000e+00   1.319457e-08   6.312745e-20  -3.200945e-06
PRIMCOORD         12
         5         1
        Br   0.000000e+00   2.823509e+00   2.823509e+00   3.316369e-20  -9.870278e-05   8.353651e-20
        Br   2.823509e+00   0.000000e+00   2.823509e+00   5.641093e-20   9.864577e-05  -9.517382e-20
        Br   2.823509e+00   2.823509e+00   0.000000e+00   9.071031e-21  -9.870278e-05   2.992206e-20
        Ca   2.823509e+00   2.823509e+00   2.823509e+00   8.677295e-20   7.610496e-05   3.785547e-20
        Cs   0.000000e+00   0.000000e+00   0.000000e+00  -5.265374e-20   3.642440e-05  -6.271591e-21
PRIMCOORD         13
         5         1
        Br   0.000000e+00   2.823509e+00   2.823509e+00  -1.141454e-04  -3.249929e-20   8.329207e-09
        Br   2.823509e+00   0.000000e+00   2.823509e+00   6.626686e-06  -3.066144e-20   8.329207e-09
        Br   2.823509e+00   2.823509e+00   0.000000e+00   6.626686e-06   4.114782e-20  -1.434715e-07
        Ca   2.823509e+00   2.823509e+00   2.823509e+00   2.056244e-04  -4.445735e-20   2.584532e-07
        Cs   0.000000e+00   0.000000e+00   0.000000e+00  -1.349336e-06   2.236352e-22  -1.696006e-09
PRIMCOORD         14
         5         1
        Br   0.000000e+00   2.823509e+00   2.823509e+00   1.434715e-07  -6.243727e-22   6.626686e-06
        Br   2.823509e+00   0.000000e+00   2.823509e+00  -8.329207e-09  -3.387518e-21   6.626686e-06
        Br   2.823509e+00   2.823509e+00   0.000000e+00  -8.329207e-09   3.851038e-22  -1.141454e-04
        Ca   2.823509e+00   2.823509e+00   2.823509e+00  -2.584532e-07   4.653369e-21   2.056244e-04
        Cs   0.000000e+00   0.000000e+00   0.000000e+00   1.696006e-09  -1.155205e-20  -1.349336e-06
PRIMCOORD         15
         5         1
        Br   0.000000e+00   2.823509e+00   2.823509e+00   1.554264e-20   8.921951e-06  -4.633237e-21
        Br   2.823509e+00   0.000000e+00   2.823509e+00   6.356643e-22   1.066489e-04   1.789945e-21
        Br   2.823509e+00   2.823509e+00   0.000000e+00   7.370756e-22   8.921951e-06  -3.699823e-21
        Ca   2.823509e+00   2.823509e+00   2.823509e+00  -1.809089e-20  -2.122633e-04   2.963057e-21
        Cs   0.000000e+00   0.000000e+00   0.000000e+00   2.129967e-20  -1.083729e-05   1.042315e-21
PRIMCOORD         16
         5         1
        Br   0.000000e+00   2.823509e+00   2.823509e+00   2.360788e-05  -4.673658e-17   7.800890e-05
        Br   2.823509e+00   0.000000e+00   2.823509e+00   2.359695e-05  -4.666759e-17   7.800983e-05
        Br   2.823509e+00   2.823509e+00   0.000000e+00   2.361713e-05  -4.681640e-17   7.797833e-05
        Ca   2.823509e+00   2.823509e+00   2.823509e+00   2.360784e-05  -4.655495e-17   7.797822e-05
        Cs   0.000000e+00   0.000000e+00   0.000000e+00   2.360665e-05  -4.710346e-17   7.804190e-05
PRIMCOORD         17
         5         1
        Br   0.000000e+00   2.823509e+00   2.823509e+00   7.801743e-05  -2.800951e-18  -2.360530e-05
        Br   2.823509e+00   0.000000e+00   2.823509e+00   7.798131e-05  -2.867284e-18  -2.360558e-05
        Br   2.823509e+00   2.823509e+00   0.000000e+00   7.804802e-05  -2.976153e-18  -2.359605e-05
        Ca   2.823509e+00   2.823509e+00   2.823509e+00   7.801732e-05  -2.763420e-18  -2.359601e-05
        Cs   0.000000e+00   0.000000e+00   0.000000e+00   7.801337e-05  -3.106381e-18  -2.361528e-05
PRIMCOORD         18
         5         1
        Br   0.000000e+00   2.823509e+00   2.823509e+00   1.627242e-17   8.147236e-05   4.396744e-17
        Br   2.823509e+00   0.000000e+00   2.823509e+00   1.630786e-17   8.134266e-05   4.387986e-17
        Br   2.823509e+00   2.823509e+00   0.000000e+00   1.636617e-17   8.147236e-05   4.395448e-17
        Ca   2.823509e+00   2.823509e+00   2.823509e+00   1.625644e-17   8.124352e-05   4.396288e-17
        Cs   0.000000e+00   0.000000e+00   0.000000e+00   1.656243e-17   8.166899e-05   4.411052e-17
PRIMCOORD         19
         5         1
        Br   0.000000e+00   2.823509e+00   2.823509e+00  -9.294857e-07   1.897588e-19   5.922356e-05
        Br   2.823509e+00   0.000000e+00   2.823509e+00  -9.797293e-07   2.119914e-19   5.756959e-05
        Br   2.823509e+00   2.823509e+00   0.000000e+00  -1.008929e-06   7.569547e-20   5.456027e-05
        Ca   2.823509e+00   2.823509e+00   2.823509e+00  -8.571373e-07   2.567666e-19   5.031346e-05
        Cs   0.000000e+00   0.000000e+00   0.000000e+00   2.011632e-06  -1.465932e-19  -1.182049e-04
PRIMCOORD         20
         5         1
        Br   0.000000e+00   2.823509e+00   2.823509e+00  -5.458831e-05  -3.332298e-18  -1.008411e-06
        Br   2.823509e+00   0.000000e+00   2.823509e+00  -5.753909e-05   1.922559e-19  -9.802487e-07
        Br   2.823509e+00   2.823509e+00   0.000000e+00  -5.925400e-05   3.039662e-18  -9.290082e-07
        Ca   2.823509e+00   2.823509e+00   2.823509e+00  -5.033932e-05   2.983003e-19  -8.566971e-07
        Cs   0.000000e+00   0.000000e+00   0.000000e+00   1.181423e-04  -5.346373e-19   2.012698e-06
PRIMCOORD         21
         5         1
        Br   0.000000e+00   2.823509e+00   2.823509e+00   2.101831e-18   2.570227e-08  -2.649929e-17
        Br   2.823509e+00   0.000000e+00   2.823509e+00   7.734511e-16  -2.622619e-20   2.612495e-17
        Br   2.823509e+00   2.823509e+00   0.000000e+00  -7.389320e-16  -2.570227e-08   4.414448e-20
        Ca   2.823509e+00   2.823509e+00   2.823509e+00   1.942252e-18  -2.426123e-20   6.547372e-20
        Cs   0.000000e+00   0.000000e+00   0.000000e+00  -4.780380e-18   1.712095e-20  -1.207766e-19
PRIMCOORD         22
         5         1
        Br   0.000000e+00   2.823509e+00   2.823509e+00   3.479803e-07   9.104996e-16   3.386866e-06
        Br   2.823509e+00   0.000000e+00   2.823509e+00   1.313628e-04  -6.518828e-20  -3.409329e-06
        Br   2.823509e+00   2.823509e+00   0.000000e+00  -1.304941e-04  -9.104790e-16  -9.031538e-09
        Ca   2.823509e+00   2.823509e+00   2.823509e+00   3.217951e-07  -9.220292e-20  -8.351924e-09
        Cs   0.000000e+00   0.000000e+00   0.000000e+00  -7.467348e-07   3.532824e-20   1.938042e-08
PRIMCOORD         23
         5         1
        Br   0.000000e+00   2.823509e+00   2.823509e+00   9.031319e-09   7.373248e-18  -1.304973e-04
        Br   2.823509e+00   0.000000e+00   2.823509e+00   3.409328e-06  -2.005267e-19   1.313628e-04
        Br   2.823509e+00   2.823509e+00   0.000000e+00  -3.386784e-06  -7.447368e-18   3.479887e-07
        Ca   2.823509e+00   2.823509e+00   2.823509e+00   8.351722e-09  -2.550317e-19   3.218029e-07
        Cs   0.000000e+00   0.000000e+00   0.000000e+00  -1.938041e-08   3.138626e-19  -7.467351e-07
PRIMCOORD         24
         5         1
        Br   0.000000e+00   2.823509e+00   2.823509e+00  -1.067942e-19  -2.660366e-05   5.440560e-19
        Br   2.823509e+00   0.000000e+00   2.823509e+00  -1.244406e-19  -8.106546e-05  -1.895387e-19
        Br   2.823509e+00   2.823509e+00   0.000000e+00  -3.182781e-21  -2.660366e-05   2.290428e-19
        Ca   2.823509e+00   2.823509e+00   2.823509e+00  -1.588428e-19  -1.044728e-04   2.455431e-19
        Cs   0.000000e+00   0.000000e+00   0.000000e+00   5.385857e-19   1.119172e-04  -1.404596e-19
PRIMCOORD         25
         5         1
        Br   0.000000e+00   2.823509e+00   2.823509e+00  -1.542844e-07  -4.454558e-20  -8.400144e-05
        Br   2.823509e+00   0.000000e+00   2.823509e+00   1.201316e-07   4.680323e-20  -8.401055e-05
        Br   2.823509e+00   2.823509e+00   0.000000e+00   1.200149e-07  -4.468748e-20   1.079876e-04
        Ca   2.823509e+00   2.823509e+00   2.823509e+00  -1.860667e-07   4.863549e-20   1.302328e-04
        Cs   0.000000e+00   0.000000e+00   0.000000e+00   4.571648e-09  -4.594758e-20  -3.197049e-06
PRIMCOORD         26
         5         1
        Br   0.000000e+00   2.823509e+00   2.823509e+00   1.078553e-04   1.532282e-19  -1.201621e-07
        Br   2.823509e+00   0.000000e+00   2.823509e+00  -8.398012e-05  -7.449205e-20  -1.201751e-07
        Br   2.823509e+00   2.823509e+00   0.000000e+00  -8.389853e-05   7.548513e-20   1.544737e-07
        Ca   2.823509e+00   2.823509e+00   2.823509e+00   1.300733e-04  -9.427367e-20   1.862950e-07
        Cs   0.000000e+00   0.000000e+00   0.000000e+00  -3.195892e-06   8.042942e-20  -4.573304e-09
PRIMCOORD         27
         5         1
        Br   0.000000e+00   2.823509e+00   2.823509e+00   1.260538e-19  -9.861159e-05   4.907762e-20
        Br   2.823509e+00   0.000000e+00   2.823509e+00   8.875213e-21   9.879164e-05   5.606385e-20
        Br   2.823509e+00   2.823509e+00   0.000000e+00  -6.604743e-20  -9.861159e-05  -2.101365e-20
        Ca   2.823509e+00   2.823509e+00   2.823509e+00   1.319814e-19   7.628640e-05  -1.866956e-20
        Cs   0.000000e+00   0.000000e+00   0.000000e+00  -1.294916e-19   3.630217e-05  -5.938159e-21
PRIMCOORD         28
         5         1
        Br   0.000000e+00   2.823509e+00   2.823509e+00  -1.121571e-04  -1.402638e-20   4.825216e-10
        Br   2.823509e+00   0.000000e+00   2.823509e+00   6.544069e-06   8.048454e-20   4.825303e-10
        Br   2.823509e+00   2.823509e+00   0.000000e+00   6.511197e-06  -1.997203e-20  -8.311560e-09
        Ca   2.823509e+00   2.823509e+00   2.823509e+00   2.020449e-04  -1.308693e-19   1.497283e-08
        Cs   0.000000e+00   0.000000e+00   0.000000e+00  -1.332494e-06   1.255754e-20  -9.825211e-11
PRIMCOORD         29
         5         1
        Br   0.000000e+00   2.823509e+00   2.823509e+00   8.171024e-09  -2.884070e-21   6.623184e-06
        Br   2.823509e+00   0.000000e+00   2.823509e+00  -4.767578e-10   3.636093e-21   6.623304e-06
        Br   2.823509e+00   2.823509e+00   0.000000e+00  -4.743629e-10   4.983881e-21  -1.140861e-04
        Ca   2.823509e+00   2.823509e+00   2.823509e+00  -1.471966e-08   9.335749e-21   2.055199e-04
        Cs   0.000000e+00   0.000000e+00   0.000000e+00   9.707672e-11   3.347482e-22  -1.348627e-06
PRIMCOORD         30
         5         1
        Br   0.000000e+00   2.823509e+00   2.823509e+00   5.697888e-20   8.921816e-06  -1.661300e-20
        Br   2.823509e+00   0.000000e+00   2.823509e+00  -2.696969e-20   1.064863e-04   1.216676e-20
        Br   2.823509e+00   2.823509e+00   0.000000e+00   9.678731e-21   8.921816e-06   4.920239e-22
        Ca   2.823509e+00   2.823509e+00   2.823509e+00  -1.055193e-19  -2.122319e-04  -5.395902e-21
        Cs   0.000000e+00   0.000000e+00   0.000000e+00   1.666596e-20  -1.081968e-05   1.090473e-21
PRIMCOORD         31
         5         1
        Br   0.000000e+00   2.823509e+00   2.823509e+00  -8.146673e-05  -2.758956e-17  -5.003430e-07
        Br   2.823509e+00   0.000000e+00   2.823509e+00  -8.133088e-05  -2.918303e-17  -5.003676e-07
        Br   2.823509e+00   2.823509e+00   0.000000e+00  -8.159449e-05  -2.746568e-17  -4.995596e-07
        Ca   2.823509e+00   2.823509e+00   2.823509e+00  -8.146625e-05  -2.738179e-17  -4.995567e-07
        Cs   0.000000e+00   0.000000e+00   0.000000e+00  -8.146470e-05  -2.954818e-17  -5.011909e-07
PRIMCOORD         32
         5         1
        Br   0.000000e+00   2.823509e+00   2.823509e+00  -5.005464e-07  -2.279205e-19   8.143363e-05
        Br   2.823509e+00   0.000000e+00   2.823509e+00  -4.997117e-07  -2.650837e-19   8.143763e-05
        Br   2.823509e+00   2.823509e+00   0.000000e+00  -5.013314e-07  -2.375314e-19   8.130612e-05
        Ca   2.823509e+00   2.823509e+00   2.823509e+00  -5.005435e-07  -2.142023e-19   8.130564e-05
        Cs   0.000000e+00   0.000000e+00   0.000000e+00  -5.005339e-07  -3.033973e-19   8.157163e-05
PRIMCOORD         33
         5         1
        Br   0.000000e+00   2.823509e+00   2.823509e+00   3.329685e-17  -1.287539e-05  -5.036346e-19
        Br   2.823509e+00   0.000000e+00   2.823509e+00   3.493854e-17  -1.783881e-05  -5.779143e-19
        Br   2.823509e+00   2.823509e+00   0.000000e+00   3.296291e-17  -1.287539e-05  -5.430458e-19
        Ca   2.823509e+00   2.823509e+00   2.823509e+00   3.331586e-17  -1.273161e-05  -5.088543e-19
        Cs   0.000000e+00   0.000000e+00   0.000000e+00   3.456160e-17  -1.812575e-05  -5.468900e-19
PRIMCOORD         34
         5         1
        Br   0.000000e+00   2.823509e+00   2.823509e+00   5.182436e-05   2.709792e-18  -4.185856e-08
        Br   2.823509e+00   0.000000e+00   2.823509e+00   5.110549e-05  -7.374082e-22  -3.745843e-08
        Br   2.823509e+00   2.823509e+00   0.000000e+00   5.859151e-05  -1.956313e-18  -3.702402e-08
        Ca   2.823509e+00   2.823509e+00   2.823509e+00   4.779864e-05  -7.230115e-20  -3.414799e-08
        Cs   0.000000e+00   0.000000e+00   0.000000e+00  -1.095440e-04   5.209544e-19   8.029169e-08
PRIMCOORD         35
         5         1
        Br   0.000000e+00   2.823509e+00   2.823509e+00   3.521454e-08  -1.594448e-19   6.160220e-05
        Br   2.823509e+00   0.000000e+00   2.823509e+00   3.472607e-08   2.099625e-20   5.512664e-05
        Br   2.823509e+00   2.823509e+00   0.000000e+00   3.981280e-08   2.018368e-19   5.448733e-05
        Ca   2.823509e+00   2.823509e+00   2.823509e+00   3.247907e-08   2.066604e-20   5.025474e-05
        Cs   0.000000e+00   0.000000e+00   0.000000e+00  -7.443490e-08   7.700421e-21  -1.181633e-04
PRIMCOORD         36
         5         1
        Br   0.000000e+00   2.823509e+00   2.823509e+00   1.006432e-18   1.074243e-08   2.327838e-18
        Br   2.823509e+00   0.000000e+00   2.823509e+00   1.721857e-16  -1.473005e-19  -2.857820e-18
        Br   2.823509e+00   2.823509e+00   0.000000e+00  -1.045825e-16  -1.074243e-08  -8.501833e-21
        Ca   2.823509e+00   2.823509e+00   2.823509e+00   9.593535e-19  -1.986814e-19   6.312267e-21
        Cs   0.000000e+00   0.000000e+00   0.000000e+00  -3.386306e-18   1.355159e-19   2.853925e-20
PRIMCOORD         37
         5         1
        Br   0.000000e+00   2.823509e+00   2.823509e+00   1.353207e-06  -9.983074e-16   1.547548e-05
        Br   2.823509e+00   0.000000e+00   2.823509e+00   1.315769e-04  -7.190191e-20  -1.588310e-05
        Br   2.823509e+00   2.823509e+00   0.000000e+00  -1.282679e-04   9.984039e-16  -1.632639e-07
        Ca   2.823509e+00   2.823509e+00   2.823509e+00   1.251657e-06  -1.552684e-19  -1.510120e-07
        Cs   0.000000e+00   0.000000e+00   0.000000e+00  -2.904677e-06   2.214001e-19   3.506336e-07
PRIMCOORD         38
         5         1
        Br   0.000000e+00   2.823509e+00   2.823509e+00   1.633447e-07  -1.131384e-16  -1.282045e-04
        Br   2.823509e+00   0.000000e+00   2.823509e+00   1.588256e-05  -8.185088e-20   1.315813e-04
        Br   2.823509e+00   2.823509e+00   0.000000e+00  -1.548314e-05   1.127601e-16   1.352538e-06
        Ca   2.823509e+00   2.823509e+00   2.823509e+00   1.510867e-07  -8.358862e-20   1.251038e-06
        Cs   0.000000e+00   0.000000e+00   0.000000e+00  -3.506217e-07  -1.024118e-19  -2.904775e-06
PRIMCOORD         39
         5         1
        Br   0.000000e+00   2.823509e+00   2.823509e+00   9.406501e-20   1.777945e-05   2.828520e-20
        Br   2.823509e+00   0.000000e+00   2.823509e+00   5.294309e-19   4.845337e-05  -2.554198e-20
        Br   2.823509e+00   2.823509e+00   0.000000e+00  -4.221840e-19   1.777945e-05  -8.558529e-22
        Ca   2.823509e+00   2.823509e+00   2.823509e+00   4.107332e-20   6.778940e-05   6.966604e-21
        Cs   0.000000e+00   0.000000e+00   0.000000e+00  -2.965475e-19  -6.679936e-05  -8.849246e-21
PRIMCOORD         40
         5         1
        Br   0.000000e+00   2.823509e+00   2.823509e+00   9.131811e-11   1.980678e-20   8.390706e-05
        Br   2.823509e+00   0.000000e+00   2.823509e+00  -7.144220e-11  -7.416525e-21   8.394345e-05
        Br   2.823509e+00   2.823509e+00   0.000000e+00  -7.105076e-11   1.366267e-20  -1.078417e-04
        Ca   2.823509e+00   2.823509e+00   2.823509e+00   1.101155e-10  -9.865388e-22  -1.300403e-04
        Cs   0.000000e+00   0.000000e+00   0.000000e+00  -2.710939e-12  -2.321172e-21   3.185310e-06
PRIMCOORD         41
         5         1
        Br   0.000000e+00   2.823509e+00   2.823509e+00  -1.069672e-04  -8.842772e-20   7.163162e-11
        Br   2.823509e+00   0.000000e+00   2.823509e+00   8.368519e-05  -2.126223e-21   7.166269e-11
        Br   2.823509e+00   2.823509e+00   0.000000e+00   8.322666e-05  -6.140145e-20  -9.206467e-11
        Ca   2.823509e+00   2.823509e+00   2.823509e+00  -1.289858e-04  -3.654246e-20  -1.110157e-10
        Cs   0.000000e+00   0.000000e+00   0.000000e+00   3.175510e-06  -7.976155e-20   2.719305e-12
PRIMCOORD         42
         5         1
        Br   0.000000e+00   2.823509e+00   2.823509e+00   1.134702e-19  -9.833735e-05   8.038370e-20
        Br   2.823509e+00   0.000000e+00   2.823509e+00   8.059897e-20   9.922463e-05  -6.275626e-20
        Br   2.823509e+00   2.823509e+00   0.000000e+00  -9.401846e-21  -9.833735e-05  -1.828031e-20
        Ca   2.823509e+00   2.823509e+00   2.823509e+00   2.778869e-20   7.683283e-05  -3.443668e-20
        Cs   0.000000e+00   0.000000e+00   0.000000e+00  -1.735465e-19   3.593298e-05  -1.523276e-21
PRIMCOORD         43
         5         1
        Br   0.000000e+00   2.823509e+00   2.823509e+00   1.138736e-04  -1.715501e-20  -5.852741e-09
        Br   2.823509e+00   0.000000e+00   2.823509e+00  -6.613072e-06  -3.241202e-21  -5.853162e-09
        Br   2.823509e+00   2.823509e+00   0.000000e+00  -6.610668e-06  -2.775945e-20   1.008177e-07
        Ca   2.823509e+00   2.823509e+00   2.823509e+00  -2.051443e-04   3.008125e-20  -1.816240e-07
        Cs   0.000000e+00   0.000000e+00   0.000000e+00   1.346485e-06   3.676743e-21   1.191760e-09
PRIMCOORD         44
         5         1
        Br   0.000000e+00   2.823509e+00   2.823509e+00  -1.007873e-07  -6.140845e-22  -6.612664e-06
        Br   2.823509e+00   0.000000e+00   2.823509e+00   5.853102e-09   1.297018e-21  -6.613140e-06
        Br   2.823509e+00   2.823509e+00   0.000000e+00   5.850974e-09   1.275927e-21   1.139079e-04
        Ca   2.823509e+00   2.823509e+00   2.823509e+00   1.815692e-07  -9.003980e-22  -2.052062e-04
        Cs   0.000000e+00   0.000000e+00   0.000000e+00  -1.191748e-09   6.630590e-21   1.346499e-06
PRIMCOORD         45
         5         1
        Br   0.000000e+00   2.823509e+00   2.823509e+00  -1.768046e-20  -8.928463e-06  -1.480414e-20
        Br   2.823509e+00   0.000000e+00   2.823509e+00   1.387337e-20  -1.062855e-04   1.219962e-20
        Br   2.823509e+00   2.823509e+00   0.000000e+00   8.679919e-21  -8.928463e-06  -6.427116e-22
        Ca   2.823509e+00   2.823509e+00   2.823509e+00   5.295612e-20   2.123055e-04  -4.174183e-21
        Cs   0.000000e+00   0.000000e+00   0.000000e+00  -3.120760e-20   1.079604e-05  -1.088026e-21
PRIMCOORD         46
         5         1
        Br   0.000000e+00   2.823509e+00   2.823509e+00  -7.285883e-06   7.267681e-19  -8.099575e-05
        Br   2.823509e+00   0.000000e+00   2.823509e+00  -7.284388e-06   7.075015e-19  -8.100521e-05
        Br   2.823509e+00   2.823509e+00   0.000000e+00  -7.311592e-06   7.159677e-19  -8.071096e-05
        Ca   2.823509e+00   2.823509e+00   2.823509e+00  -7.285785e-06   6.714482e-19  -8.070988e-05
        Cs   0.000000e+00   0.000000e+00   0.000000e+00  -7.311383e-06   8.315356e-19  -8.130541e-05
PRIMCOORD         47
         5         1
        Br   0.000000e+00   2.823509e+00   2.823509e+00  -8.095734e-05  -1.238641e-17   7.289341e-06
        Br   2.823509e+00   0.000000e+00   2.823509e+00  -8.094072e-05  -1.219464e-17   7.290192e-06
        Br   2.823509e+00   2.823509e+00   0.000000e+00  -8.124299e-05  -1.263090e-17   7.263711e-06
        Ca   2.823509e+00   2.823509e+00   2.823509e+00  -8.095625e-05  -1.216792e-17   7.263613e-06
        Cs   0.000000e+00   0.000000e+00   0.000000e+00  -8.124068e-05  -1.265785e-17   7.317209e-06
PRIMCOORD         48
         5         1
        Br   0.000000e+00   2.823509e+00   2.823509e+00   1.241695e-17  -8.087915e-05  -1.845914e-18
        Br   2.823509e+00   0.000000e+00   2.823509e+00   1.239480e-17  -7.985799e-05  -1.813630e-18
        Br   2.823509e+00   2.823509e+00   0.000000e+00   1.232652e-17  -8.087915e-05  -1.867301e-18
        Ca   2.823509e+00   2.823509e+00   2.823509e+00   1.247041e-17  -7.886742e-05  -1.868386e-18
        Cs   0.000000e+00   0.000000e+00   0.000000e+00   1.210218e-17  -8.275944e-05  -1.927381e-18
PRIMCOORD         49
         5         1
        Br   0.000000e+00   2.823509e+00   2.823509e+00   2.139307e-05   8.843735e-19  -6.001975e-05
        Br   2.823509e+00   0.000000e+00   2.823509e+00   2.010028e-05  -1.766247e-19  -4.710947e-05
        Br   2.823509e+00   2.823509e+00   0.000000e+00   2.570446e-05  -9.074193e-19  -4.995267e-05
        Ca   2.823509e+00   2.823509e+00   2.823509e+00   1.973674e-05  -2.475961e-19  -4.608515e-05
        Cs   0.000000e+00   0.000000e+00   0.000000e+00  -4.629792e-05   2.930660e-19   1.085095e-04
PRIMCOORD         50
         5         1
        Br   0.000000e+00   2.823509e+00   2.823509e+00  -5.010180e-05  -1.901121e-18  -2.562795e-05
        Br   2.823509e+00   0.000000e+00   2.823509e+00  -4.707414e-05   1.308172e-19  -2.011537e-05
        Br   2.823509e+00   2.823509e+00   0.000000e+00  -6.019893e-05   1.614136e-18  -2.132939e-05
        Ca   2.823509e+00   2.823509e+00   2.823509e+00  -4.622274e-05   2.427053e-19  -1.967799e-05
        Cs   0.000000e+00   0.000000e+00   0.000000e+00   1.084281e-04  -4.889462e-19   4.633267e-05
PRIMCOORD         51
         5         1
        Br   0.000000e+00   2.823509e+00   2.823509e+00  -6.266077e-19   1.039914e-10   8.167439e-18
        Br   2.823509e+00   0.000000e+00   2.823509e+00  -2.306298e-17   6.628569e-19  -8.851112e-18
        Br   2.823509e+00   2.823509e+00   0.000000e+00   2.889624e-17  -1.039914e-10  -1.513405e-19
        Ca   2.823509e+00   2.823509e+00   2.823509e+00  -5.768072e-19   8.660252e-19  -1.882955e-19
        Cs   0.000000e+00   0.000000e+00   0.000000e+00   1.363277e-18  -9.806740e-19   3.661838e-19
PRIMCOORD         52
         5         1
        Br   0.000000e+00   2.823509e+00   2.823509e+00  -2.950136e-06   7.519217e-17  -4.993780e-06
        Br   2.823509e+00   0.000000e+00   2.823509e+00  -1.341245e-04  -1.487190e-19   5.285916e-06
        Br   2.823509e+00   2.823509e+00   0.000000e+00   1.267234e-04  -7.566344e-17   1.162558e-07
        Ca   2.823509e+00   2.823509e+00   2.823509e+00  -2.729761e-06  -2.506694e-19   1.075715e-07
        Cs   0.000000e+00   0.000000e+00   0.000000e+00   6.344057e-06   3.858799e-19  -2.500227e-07
PRIMCOORD         53
         5         1
        Br   0.000000e+00   2.823509e+00   2.823509e+00  -1.162664e-07   4.364797e-19   1.267119e-04
        Br   2.823509e+00   0.000000e+00   2.823509e+00  -5.285913e-06   2.354125e-19  -1.341245e-04
        Br   2.823509e+00   2.823509e+00   0.000000e+00   4.994234e-06  -3.958815e-19  -2.949868e-06
        Ca   2.823509e+00   2.823509e+00   2.823509e+00  -1.075813e-07   2.708517e-19  -2.729513e-06
        Cs   0.000000e+00   0.000000e+00   0.000000e+00   2.500226e-07  -2.871708e-19   6.344060e-06
PRIMCOORD         54
         5         1
        Br   0.000000e+00   2.823509e+00   2.823509e+00   1.653454e-19   2.854798e-05  -4.225574e-19
        Br   2.823509e+00   0.000000e+00   2.823509e+00  -2.531458e-19   8.092687e-05   3.287343e-19
        Br   2.823509e+00   2.823509e+00   0.000000e+00   5.946676e-19   2.854798e-05  -1.541880e-19
        Ca   2.823509e+00   2.823509e+00   2.823509e+00   1.889864e-19   1.038059e-04  -1.441153e-19
        Cs   0.000000e+00   0.000000e+00   0.000000e+00  -4.718101e-19  -1.113410e-04   5.879578e-20
PRIMCOORD         55
         5         1
        Br   0.000000e+00   2.823509e+00   2.823509e+00  -7.471907e-08  -1.942567e-20   8.374951e-05
        Br   2.823509e+00   0.000000e+00   2.823509e+00   5.600109e-08  -2.853747e-20   8.383124e-05