# Animation of a phonon mode
# K point :        0       0       0
# Mode index :    1
# Frequency (cm^-1) : 1.09737e-10

ANIMSTEPS 20
CRYSTAL
PRIMVEC
   1.129404e+01   0.000000e+00   0.000000e+00
   0.000000e+00   1.129404e+01   0.000000e+00
   0.000000e+00   0.000000e+00   1.129404e+01
PRIMCOORD          1
        40         1
        Br   0.000000e+00   2.823509e+00   2.823509e+00
        Br   2.823509e+00   0.000000e+00   2.823509e+00
        Br   2.823509e+00   2.823509e+00   1.001523e-17
        Ca   2.823509e+00   2.823509e+00   2.823509e+00
        Cs   0.000000e+00   0.000000e+00   5.694781e-18
        Br   0.000000e+00   2.823509e+00   8.470528e+00
        Br   2.823509e+00   0.000000e+00   8.470528e+00
        Br   2.823509e+00   2.823509e+00   5.647018e+00
        Ca   2.823509e+00   2.823509e+00   8.470528e+00
        Cs   0.000000e+00   0.000000e+00   5.647018e+00
        Br   0.000000e+00   8.470528e+00   2.823509e+00
        Br   2.823509e+00   5.647018e+00   2.823509e+00
        Br   2.823509e+00   8.470528e+00   1.001523e-17
        Ca   2.823509e+00   8.470528e+00   2.823509e+00
        Cs   0.000000e+00   5.647018e+00   5.694781e-18
        Br   0.000000e+00   8.470528e+00   8.470528e+00
        Br   2.823509e+00   5.647018e+00   8.470528e+00
        Br   2.823509e+00   8.470528e+00   5.647018e+00
        Ca   2.823509e+00   8.470528e+00   8.470528e+00
        Cs   0.000000e+00   5.647018e+00   5.647018e+00
        Br   5.647018e+00   2.823509e+00   2.823509e+00
        Br   8.470528e+00   0.000000e+00   2.823509e+00
        Br   8.470528e+00   2.823509e+00   1.001523e-17
        Ca   8.470528e+00   2.823509e+00   2.823509e+00
        Cs   5.647018e+00   0.000000e+00   5.694781e-18
        Br   5.647018e+00   2.823509e+00   8.470528e+00
        Br   8.470528e+00   0.000000e+00   8.470528e+00
        Br   8.470528e+00   2.823509e+00   5.647018e+00
        Ca   8.470528e+00   2.823509e+00   8.470528e+00
        Cs   5.647018e+00   0.000000e+00   5.647018e+00
        Br   5.647018e+00   8.470528e+00   2.823509e+00
        Br   8.470528e+00   5.647018e+00   2.823509e+00
        Br   8.470528e+00   8.470528e+00   1.001523e-17
        Ca   8.470528e+00   8.470528e+00   2.823509e+00
        Cs   5.647018e+00   5.647018e+00   5.694781e-18
        Br   5.647018e+00   8.470528e+00   8.470528e+00
        Br   8.470528e+00   5.647018e+00   8.470528e+00
        Br   8.470528e+00   8.470528e+00   5.647018e+00
        Ca   8.470528e+00   8.470528e+00   8.470528e+00
        Cs   5.647018e+00   5.647018e+00   5.647018e+00
PRIMCOORD          2
        40         1
        Br   2.327483e-02   2.877405e+00   2.820603e+00
        Br   2.868355e+00   1.754932e-02   2.789808e+00
        Br   2.853544e+00   2.839072e+00  -4.806943e-02
        Ca   2.832445e+00   2.850533e+00   2.818867e+00
        Cs   6.331617e-03   7.092431e-03  -2.733285e-02
        Br   2.327483e-02   2.877405e+00   8.467621e+00
        Br   2.868355e+00   1.754932e-02   8.436826e+00
        Br   2.853544e+00   2.839072e+00   5.598949e+00
        Ca   2.832445e+00   2.850533e+00   8.465885e+00
        Cs   6.331617e-03   7.092431e-03   5.619686e+00
        Br   2.327483e-02   8.524423e+00   2.820603e+00
        Br   2.868355e+00   5.664568e+00   2.789808e+00
        Br   2.853544e+00   8.486090e+00  -4.806943e-02
        Ca   2.832445e+00   8.497552e+00   2.818867e+00
        Cs   6.331617e-03   5.654111e+00  -2.733285e-02
        Br   2.327483e-02   8.524423e+00   8.467621e+00
        Br   2.868355e+00   5.664568e+00   8.436826e+00
        Br   2.853544e+00   8.486090e+00   5.598949e+00
        Ca   2.832445e+00   8.497552e+00   8.465885e+00
        Cs   6.331617e-03   5.654111e+00   5.619686e+00
        Br   5.670293e+00   2.877405e+00   2.820603e+00
        Br   8.515373e+00   1.754932e-02   2.789808e+00
        Br   8.500562e+00   2.839072e+00  -4.806943e-02
        Ca   8.479464e+00   2.850533e+00   2.818867e+00
        Cs   5.653350e+00   7.092431e-03  -2.733285e-02
        Br   5.670293e+00   2.877405e+00   8.467621e+00
        Br   8.515373e+00   1.754932e-02   8.436826e+00
        Br   8.500562e+00   2.839072e+00   5.598949e+00
        Ca   8.479464e+00   2.850533e+00   8.465885e+00
        Cs   5.653350e+00   7.092431e-03   5.619686e+00
        Br   5.670293e+00   8.524423e+00   2.820603e+00
        Br   8.515373e+00   5.664568e+00   2.789808e+00
        Br   8.500562e+00   8.486090e+00  -4.806943e-02
        Ca   8.479464e+00   8.497552e+00   2.818867e+00
        Cs   5.653350e+00   5.654111e+00  -2.733285e-02
        Br   5.670293e+00   8.524423e+00   8.467621e+00
        Br   8.515373e+00   5.664568e+00   8.436826e+00
        Br   8.500562e+00   8.486090e+00   5.598949e+00
        Ca   8.479464e+00   8.497552e+00   8.465885e+00
        Cs   5.653350e+00   5.654111e+00   5.619686e+00
PRIMCOORD          3
        40         1
        Br   3.765947e-02   2.910714e+00   2.818807e+00
        Br   2.896071e+00   2.839539e-02   2.768979e+00
        Br   2.872106e+00   2.848690e+00  -7.777797e-02
        Ca   2.837968e+00   2.867235e+00   2.815998e+00
        Cs   1.024477e-02   1.147579e-02  -4.422548e-02
        Br   3.765947e-02   2.910714e+00   8.465825e+00
        Br   2.896071e+00   2.839539e-02   8.415997e+00
        Br   2.872106e+00   2.848690e+00   5.569240e+00
        Ca   2.837968e+00   2.867235e+00   8.463016e+00
        Cs   1.024477e-02   1.147579e-02   5.602793e+00
        Br   3.765947e-02   8.557733e+00   2.818807e+00
        Br   2.896071e+00   5.675414e+00   2.768979e+00
        Br   2.872106e+00   8.495708e+00  -7.777797e-02
        Ca   2.837968e+00   8.514254e+00   2.815998e+00
        Cs   1.024477e-02   5.658494e+00  -4.422548e-02
        Br   3.765947e-02   8.557733e+00   8.465825e+00
        Br   2.896071e+00   5.675414e+00   8.415997e+00
        Br   2.872106e+00   8.495708e+00   5.569240e+00
        Ca   2.837968e+00   8.514254e+00   8.463016e+00
        Cs   1.024477e-02   5.658494e+00   5.602793e+00
        Br   5.684678e+00   2.910714e+00   2.818807e+00
        Br   8.543090e+00   2.839539e-02   2.768979e+00
        Br   8.519124e+00   2.848690e+00  -7.777797e-02
        Ca   8.484987e+00   2.867235e+00   2.815998e+00
        Cs   5.657263e+00   1.147579e-02  -4.422548e-02
        Br   5.684678e+00   2.910714e+00   8.465825e+00
        Br   8.543090e+00   2.839539e-02   8.415997e+00
        Br   8.519124e+00   2.848690e+00   5.569240e+00
        Ca   8.484987e+00   2.867235e+00   8.463016e+00
        Cs   5.657263e+00   1.147579e-02   5.602793e+00
        Br   5.684678e+00   8.557733e+00   2.818807e+00
        Br   8.543090e+00   5.675414e+00   2.768979e+00
        Br   8.519124e+00   8.495708e+00  -7.777797e-02
        Ca   8.484987e+00   8.514254e+00   2.815998e+00
        Cs   5.657263e+00   5.658494e+00  -4.422548e-02
        Br   5.684678e+00   8.557733e+00   8.465825e+00
        Br   8.543090e+00   5.675414e+00   8.415997e+00
        Br   8.519124e+00   8.495708e+00   5.569240e+00
        Ca   8.484987e+00   8.514254e+00   8.463016e+00
        Cs   5.657263e+00   5.658494e+00   5.602793e+00
PRIMCOORD          4
        40         1
        Br   3.765947e-02   2.910714e+00   2.818807e+00
        Br   2.896071e+00   2.839539e-02   2.768979e+00
        Br   2.872106e+00   2.848690e+00  -7.777797e-02
        Ca   2.837968e+00   2.867235e+00   2.815998e+00
        Cs   1.024477e-02   1.147579e-02  -4.422548e-02
        Br   3.765947e-02   2.910714e+00   8.465825e+00
        Br   2.896071e+00   2.839539e-02   8.415997e+00
        Br   2.872106e+00   2.848690e+00   5.569240e+00
        Ca   2.837968e+00   2.867235e+00   8.463016e+00
        Cs   1.024477e-02   1.147579e-02   5.602793e+00
        Br   3.765947e-02   8.557733e+00   2.818807e+00
        Br   2.896071e+00   5.675414e+00   2.768979e+00
        Br   2.872106e+00   8.495708e+00  -7.777797e-02
        Ca   2.837968e+00   8.514254e+00   2.815998e+00
        Cs   1.024477e-02   5.658494e+00  -4.422548e-02
        Br   3.765947e-02   8.557733e+00   8.465825e+00
        Br   2.896071e+00   5.675414e+00   8.415997e+00
        Br   2.872106e+00   8.495708e+00   5.569240e+00
        Ca   2.837968e+00   8.514254e+00   8.463016e+00
        Cs   1.024477e-02   5.658494e+00   5.602793e+00
        Br   5.684678e+00   2.910714e+00   2.818807e+00
        Br   8.543090e+00   2.839539e-02   2.768979e+00
        Br   8.519124e+00   2.848690e+00  -7.777797e-02
        Ca   8.484987e+00   2.867235e+00   2.815998e+00
        Cs   5.657263e+00   1.147579e-02  -4.422548e-02
        Br   5.684678e+00   2.910714e+00   8.465825e+00
        Br   8.543090e+00   2.839539e-02   8.415997e+00
        Br   8.519124e+00   2.848690e+00   5.569240e+00
        Ca   8.484987e+00   2.867235e+00   8.463016e+00
        Cs   5.657263e+00   1.147579e-02   5.602793e+00
        Br   5.684678e+00   8.557733e+00   2.818807e+00
        Br   8.543090e+00   5.675414e+00   2.768979e+00
        Br   8.519124e+00   8.495708e+00  -7.777797e-02
        Ca   8.484987e+00   8.514254e+00   2.815998e+00
        Cs   5.657263e+00   5.658494e+00  -4.422548e-02
        Br   5.684678e+00   8.557733e+00   8.465825e+00
        Br   8.543090e+00   5.675414e+00   8.415997e+00
        Br   8.519124e+00   8.495708e+00   5.569240e+00
        Ca   8.484987e+00   8.514254e+00   8.463016e+00
        Cs   5.657263e+00   5.658494e+00   5.602793e+00
PRIMCOORD          5
        40         1
        Br   2.327483e-02   2.877405e+00   2.820603e+00
        Br   2.868355e+00   1.754932e-02   2.789808e+00
        Br   2.853544e+00   2.839072e+00  -4.806943e-02
        Ca   2.832445e+00   2.850533e+00   2.818867e+00
        Cs   6.331617e-03   7.092431e-03  -2.733285e-02
        Br   2.327483e-02   2.877405e+00   8.467621e+00
        Br   2.868355e+00   1.754932e-02   8.436826e+00
        Br   2.853544e+00   2.839072e+00   5.598949e+00
        Ca   2.832445e+00   2.850533e+00   8.465885e+00
        Cs   6.331617e-03   7.092431e-03   5.619686e+00
        Br   2.327483e-02   8.524423e+00   2.820603e+00
        Br   2.868355e+00   5.664568e+00   2.789808e+00
        Br   2.853544e+00   8.486090e+00  -4.806943e-02
        Ca   2.832445e+00   8.497552e+00   2.818867e+00
        Cs   6.331617e-03   5.654111e+00  -2.733285e-02
        Br   2.327483e-02   8.524423e+00   8.467621e+00
        Br   2.868355e+00   5.664568e+00   8.436826e+00
        Br   2.853544e+00   8.486090e+00   5.598949e+00
        Ca   2.832445e+00   8.497552e+00   8.465885e+00
        Cs   6.331617e-03   5.654111e+00   5.619686e+00
        Br   5.670293e+00   2.877405e+00   2.820603e+00
        Br   8.515373e+00   1.754932e-02   2.789808e+00
        Br   8.500562e+00   2.839072e+00  -4.806943e-02
        Ca   8.479464e+00   2.850533e+00   2.818867e+00
        Cs   5.653350e+00   7.092431e-03  -2.733285e-02
        Br   5.670293e+00   2.877405e+00   8.467621e+00
        Br   8.515373e+00   1.754932e-02   8.436826e+00
        Br   8.500562e+00   2.839072e+00   5.598949e+00
        Ca   8.479464e+00   2.850533e+00   8.465885e+00
        Cs   5.653350e+00   7.092431e-03   5.619686e+00
        Br   5.670293e+00   8.524423e+00   2.820603e+00
        Br   8.515373e+00   5.664568e+00   2.789808e+00
        Br   8.500562e+00   8.486090e+00  -4.806943e-02
        Ca   8.479464e+00   8.497552e+00   2.818867e+00
        Cs   5.653350e+00   5.654111e+00  -2.733285e-02
        Br   5.670293e+00   8.524423e+00   8.467621e+00
        Br   8.515373e+00   5.664568e+00   8.436826e+00
        Br   8.500562e+00   8.486090e+00   5.598949e+00
        Ca   8.479464e+00   8.497552e+00   8.465885e+00
        Cs   5.653350e+00   5.654111e+00   5.619686e+00
PRIMCOORD          6
        40         1
        Br   4.849297e-18   2.823509e+00   2.823509e+00
        Br   2.823509e+00   3.656389e-18   2.823509e+00
        Br   2.823509e+00   2.823509e+00  -2.003047e-17
        Ca   2.823509e+00   2.823509e+00   2.823509e+00
        Cs   1.319188e-18   1.477703e-18  -1.138956e-17
        Br   4.849297e-18   2.823509e+00   8.470528e+00
        Br   2.823509e+00   3.656389e-18   8.470528e+00
        Br   2.823509e+00   2.823509e+00   5.647018e+00
        Ca   2.823509e+00   2.823509e+00   8.470528e+00
        Cs   1.319188e-18   1.477703e-18   5.647018e+00
        Br   4.849297e-18   8.470528e+00   2.823509e+00
        Br   2.823509e+00   5.647018e+00   2.823509e+00
        Br   2.823509e+00   8.470528e+00  -2.003047e-17
        Ca   2.823509e+00   8.470528e+00   2.823509e+00
        Cs   1.319188e-18   5.647018e+00  -1.138956e-17
        Br   4.849297e-18   8.470528e+00   8.470528e+00
        Br   2.823509e+00   5.647018e+00   8.470528e+00
        Br   2.823509e+00   8.470528e+00   5.647018e+00
        Ca   2.823509e+00   8.470528e+00   8.470528e+00
        Cs   1.319188e-18   5.647018e+00   5.647018e+00
        Br   5.647018e+00   2.823509e+00   2.823509e+00
        Br   8.470528e+00   3.656389e-18   2.823509e+00
        Br   8.470528e+00   2.823509e+00  -2.003047e-17
        Ca   8.470528e+00   2.823509e+00   2.823509e+00
        Cs   5.647018e+00   1.477703e-18  -1.138956e-17
        Br   5.647018e+00   2.823509e+00   8.470528e+00
        Br   8.470528e+00   3.656389e-18   8.470528e+00
        Br   8.470528e+00   2.823509e+00   5.647018e+00
        Ca   8.470528e+00   2.823509e+00   8.470528e+00
        Cs   5.647018e+00   1.477703e-18   5.647018e+00
        Br   5.647018e+00   8.470528e+00   2.823509e+00
        Br   8.470528e+00   5.647018e+00   2.823509e+00
        Br   8.470528e+00   8.470528e+00  -2.003047e-17
        Ca   8.470528e+00   8.470528e+00   2.823509e+00
        Cs   5.647018e+00   5.647018e+00  -1.138956e-17
        Br   5.647018e+00   8.470528e+00   8.470528e+00
        Br   8.470528e+00   5.647018e+00   8.470528e+00
        Br   8.470528e+00   8.470528e+00   5.647018e+00
        Ca   8.470528e+00   8.470528e+00   8.470528e+00
        Cs   5.647018e+00   5.647018e+00   5.647018e+00
PRIMCOORD          7
        40         1
        Br  -2.327483e-02   2.769613e+00   2.826415e+00
        Br   2.778664e+00  -1.754932e-02   2.857211e+00
        Br   2.793475e+00   2.807947e+00   4.806943e-02
        Ca   2.814573e+00   2.796485e+00   2.828152e+00
        Cs  -6.331617e-03  -7.092431e-03   2.733285e-02
        Br  -2.327483e-02   2.769613e+00   8.473434e+00
        Br   2.778664e+00  -1.754932e-02   8.504229e+00
        Br   2.793475e+00   2.807947e+00   5.695088e+00
        Ca   2.814573e+00   2.796485e+00   8.475170e+00
        Cs  -6.331617e-03  -7.092431e-03   5.674351e+00
        Br  -2.327483e-02   8.416632e+00   2.826415e+00
        Br   2.778664e+00   5.629469e+00   2.857211e+00
        Br   2.793475e+00   8.454965e+00   4.806943e-02
        Ca   2.814573e+00   8.443503e+00   2.828152e+00
        Cs  -6.331617e-03   5.639926e+00   2.733285e-02
        Br  -2.327483e-02   8.416632e+00   8.473434e+00
        Br   2.778664e+00   5.629469e+00   8.504229e+00
        Br   2.793475e+00   8.454965e+00   5.695088e+00
        Ca   2.814573e+00   8.443503e+00   8.475170e+00
        Cs  -6.331617e-03   5.639926e+00   5.674351e+00
        Br   5.623744e+00   2.769613e+00   2.826415e+00
        Br   8.425682e+00  -1.754932e-02   2.857211e+00
        Br   8.440493e+00   2.807947e+00   4.806943e-02
        Ca   8.461592e+00   2.796485e+00   2.828152e+00
        Cs   5.640687e+00  -7.092431e-03   2.733285e-02
        Br   5.623744e+00   2.769613e+00   8.473434e+00
        Br   8.425682e+00  -1.754932e-02   8.504229e+00
        Br   8.440493e+00   2.807947e+00   5.695088e+00
        Ca   8.461592e+00   2.796485e+00   8.475170e+00
        Cs   5.640687e+00  -7.092431e-03   5.674351e+00
        Br   5.623744e+00   8.416632e+00   2.826415e+00
        Br   8.425682e+00   5.629469e+00   2.857211e+00
        Br   8.440493e+00   8.454965e+00   4.806943e-02
        Ca   8.461592e+00   8.443503e+00   2.828152e+00
        Cs   5.640687e+00   5.639926e+00   2.733285e-02
        Br   5.623744e+00   8.416632e+00   8.473434e+00
        Br   8.425682e+00   5.629469e+00   8.504229e+00
        Br   8.440493e+00   8.454965e+00   5.695088e+00
        Ca   8.461592e+00   8.443503e+00   8.475170e+00
        Cs   5.640687e+00   5.639926e+00   5.674351e+00
PRIMCOORD          8
        40         1
        Br  -3.765947e-02   2.736304e+00   2.828211e+00
        Br   2.750947e+00  -2.839539e-02   2.878040e+00
        Br   2.774913e+00   2.798329e+00   7.777797e-02
        Ca   2.809050e+00   2.779783e+00   2.831021e+00
        Cs  -1.024477e-02  -1.147579e-02   4.422548e-02
        Br  -3.765947e-02   2.736304e+00   8.475230e+00
        Br   2.750947e+00  -2.839539e-02   8.525058e+00
        Br   2.774913e+00   2.798329e+00   5.724796e+00
        Ca   2.809050e+00   2.779783e+00   8.478039e+00
        Cs  -1.024477e-02  -1.147579e-02   5.691244e+00
        Br  -3.765947e-02   8.383322e+00   2.828211e+00
        Br   2.750947e+00   5.618623e+00   2.878040e+00
        Br   2.774913e+00   8.445347e+00   7.777797e-02
        Ca   2.809050e+00   8.426802e+00   2.831021e+00
        Cs  -1.024477e-02   5.635543e+00   4.422548e-02
        Br  -3.765947e-02   8.383322e+00   8.475230e+00
        Br   2.750947e+00   5.618623e+00   8.525058e+00
        Br   2.774913e+00   8.445347e+00   5.724796e+00
        Ca   2.809050e+00   8.426802e+00   8.478039e+00
        Cs  -1.024477e-02   5.635543e+00   5.691244e+00
        Br   5.609359e+00   2.736304e+00   2.828211e+00
        Br   8.397966e+00  -2.839539e-02   2.878040e+00
        Br   8.421931e+00   2.798329e+00   7.777797e-02
        Ca   8.456069e+00   2.779783e+00   2.831021e+00
        Cs   5.636774e+00  -1.147579e-02   4.422548e-02
        Br   5.609359e+00   2.736304e+00   8.475230e+00
        Br   8.397966e+00  -2.839539e-02   8.525058e+00
        Br   8.421931e+00   2.798329e+00   5.724796e+00
        Ca   8.456069e+00   2.779783e+00   8.478039e+00
        Cs   5.636774e+00  -1.147579e-02   5.691244e+00
        Br   5.609359e+00   8.383322e+00   2.828211e+00
        Br   8.397966e+00   5.618623e+00   2.878040e+00
        Br   8.421931e+00   8.445347e+00   7.777797e-02
        Ca   8.456069e+00   8.426802e+00   2.831021e+00
        Cs   5.636774e+00   5.635543e+00   4.422548e-02
        Br   5.609359e+00   8.383322e+00   8.475230e+00
        Br   8.397966e+00   5.618623e+00   8.525058e+00
        Br   8.421931e+00   8.445347e+00   5.724796e+00
        Ca   8.456069e+00   8.426802e+00   8.478039e+00
        Cs   5.636774e+00   5.635543e+00   5.691244e+00
PRIMCOORD          9
        40         1
        Br  -3.765947e-02   2.736304e+00   2.828211e+00
        Br   2.750947e+00  -2.839539e-02   2.878040e+00
        Br   2.774913e+00   2.798329e+00   7.777797e-02
        Ca   2.809050e+00   2.779783e+00   2.831021e+00
        Cs  -1.024477e-02  -1.147579e-02   4.422548e-02
        Br  -3.765947e-02   2.736304e+00   8.475230e+00
        Br   2.750947e+00  -2.839539e-02   8.525058e+00
        Br   2.774913e+00   2.798329e+00   5.724796e+00
        Ca   2.809050e+00   2.779783e+00   8.478039e+00
        Cs  -1.024477e-02  -1.147579e-02   5.691244e+00
        Br  -3.765947e-02   8.383322e+00   2.828211e+00
        Br   2.750947e+00   5.618623e+00   2.878040e+00
        Br   2.774913e+00   8.445347e+00   7.777797e-02
        Ca   2.809050e+00   8.426802e+00   2.831021e+00
        Cs  -1.024477e-02   5.635543e+00   4.422548e-02
        Br  -3.765947e-02   8.383322e+00   8.475230e+00
        Br   2.750947e+00   5.618623e+00   8.525058e+00
        Br   2.774913e+00   8.445347e+00   5.724796e+00
        Ca   2.809050e+00   8.426802e+00   8.478039e+00
        Cs  -1.024477e-02   5.635543e+00   5.691244e+00
        Br   5.609359e+00   2.736304e+00   2.828211e+00
        Br   8.397966e+00  -2.839539e-02   2.878040e+00
        Br   8.421931e+00   2.798329e+00   7.777797e-02
        Ca   8.456069e+00   2.779783e+00   2.831021e+00
        Cs   5.636774e+00  -1.147579e-02   4.422548e-02
        Br   5.609359e+00   2.736304e+00   8.475230e+00
        Br   8.397966e+00  -2.839539e-02   8.525058e+00
        Br   8.421931e+00   2.798329e+00   5.724796e+00
        Ca   8.456069e+00   2.779783e+00   8.478039e+00
        Cs   5.636774e+00  -1.147579e-02   5.691244e+00
        Br   5.609359e+00   8.383322e+00   2.828211e+00
        Br   8.397966e+00   5.618623e+00   2.878040e+00
        Br   8.421931e+00   8.445347e+00   7.777797e-02
        Ca   8.456069e+00   8.426802e+00   2.831021e+00
        Cs   5.636774e+00   5.635543e+00   4.422548e-02
        Br   5.609359e+00   8.383322e+00   8.475230e+00
        Br   8.397966e+00   5.618623e+00   8.525058e+00
        Br   8.421931e+00   8.445347e+00   5.724796e+00
        Ca   8.456069e+00   8.426802e+00   8.478039e+00
        Cs   5.636774e+00   5.635543e+00   5.691244e+00
PRIMCOORD         10
        40         1
        Br  -2.327483e-02   2.769613e+00   2.826415e+00
        Br   2.778664e+00  -1.754932e-02   2.857211e+00
        Br   2.793475e+00   2.807947e+00   4.806943e-02
        Ca   2.814573e+00   2.796485e+00   2.828152e+00
        Cs  -6.331617e-03  -7.092431e-03   2.733285e-02
        Br  -2.327483e-02   2.769613e+00   8.473434e+00
        Br   2.778664e+00  -1.754932e-02   8.504229e+00
        Br   2.793475e+00   2.807947e+00   5.695088e+00
        Ca   2.814573e+00   2.796485e+00   8.475170e+00
        Cs  -6.331617e-03  -7.092431e-03   5.674351e+00
        Br  -2.327483e-02   8.416632e+00   2.826415e+00
        Br   2.778664e+00   5.629469e+00   2.857211e+00
        Br   2.793475e+00   8.454965e+00   4.806943e-02
        Ca   2.814573e+00   8.443503e+00   2.828152e+00
        Cs  -6.331617e-03   5.639926e+00   2.733285e-02
        Br  -2.327483e-02   8.416632e+00   8.473434e+00
        Br   2.778664e+00   5.629469e+00   8.504229e+00
        Br   2.793475e+00   8.454965e+00   5.695088e+00
        Ca   2.814573e+00   8.443503e+00   8.475170e+00
        Cs  -6.331617e-03   5.639926e+00   5.674351e+00
        Br   5.623744e+00   2.769613e+00   2.826415e+00
        Br   8.425682e+00  -1.754932e-02   2.857211e+00
        Br   8.440493e+00   2.807947e+00   4.806943e-02
        Ca   8.461592e+00   2.796485e+00   2.828152e+00
        Cs   5.640687e+00  -7.092431e-03   2.733285e-02
        Br   5.623744e+00   2.769613e+00   8.473434e+00
        Br   8.425682e+00  -1.754932e-02   8.504229e+00
        Br   8.440493e+00   2.807947e+00   5.695088e+00
        Ca   8.461592e+00   2.796485e+00   8.475170e+00
        Cs   5.640687e+00  -7.092431e-03   5.674351e+00
        Br   5.623744e+00   8.416632e+00   2.826415e+00
        Br   8.425682e+00   5.629469e+00   2.857211e+00
        Br   8.440493e+00   8.454965e+00   4.806943e-02
        Ca   8.461592e+00   8.443503e+00   2.828152e+00
        Cs   5.640687e+00   5.639926e+00   2.733285e-02
        Br   5.623744e+00   8.416632e+00   8.473434e+00
        Br   8.425682e+00   5.629469e+00   8.504229e+00
        Br   8.440493e+00   8.454965e+00   5.695088e+00
        Ca   8.461592e+00   8.443503e+00   8.475170e+00
        Cs   5.640687e+00   5.639926e+00   5.674351e+00
PRIMCOORD         11
        40         1
        Br  -9.698593e-18   2.823509e+00   2.823509e+00
        Br   2.823509e+00  -7.312778e-18   2.823509e+00
        Br   2.823509e+00   2.823509e+00   3.004570e-17
        Ca   2.823509e+00   2.823509e+00   2.823509e+00
        Cs  -2.638377e-18  -2.955407e-18   1.708434e-17
        Br  -9.698593e-18   2.823509e+00   8.470528e+00
        Br   2.823509e+00  -7.312778e-18   8.470528e+00
        Br   2.823509e+00   2.823509e+00   5.647018e+00
        Ca   2.823509e+00   2.823509e+00   8.470528e+00
        Cs  -2.638377e-18  -2.955407e-18   5.647018e+00
        Br  -9.698593e-18   8.470528e+00   2.823509e+00
        Br   2.823509e+00   5.647018e+00   2.823509e+00
        Br   2.823509e+00   8.470528e+00   3.004570e-17
        Ca   2.823509e+00   8.470528e+00   2.823509e+00
        Cs  -2.638377e-18   5.647018e+00   1.708434e-17
        Br  -9.698593e-18   8.470528e+00   8.470528e+00
        Br   2.823509e+00   5.647018e+00   8.470528e+00
        Br   2.823509e+00   8.470528e+00   5.647018e+00
        Ca   2.823509e+00   8.470528e+00   8.470528e+00
        Cs  -2.638377e-18   5.647018e+00   5.647018e+00
        Br   5.647018e+00   2.823509e+00   2.823509e+00
        Br   8.470528e+00  -7.312778e-18   2.823509e+00
        Br   8.470528e+00   2.823509e+00   3.004570e-17
        Ca   8.470528e+00   2.823509e+00   2.823509e+00
        Cs   5.647018e+00  -2.955407e-18   1.708434e-17
        Br   5.647018e+00   2.823509e+00   8.470528e+00
        Br   8.470528e+00  -7.312778e-18   8.470528e+00
        Br   8.470528e+00   2.823509e+00   5.647018e+00
        Ca   8.470528e+00   2.823509e+00   8.470528e+00
        Cs   5.647018e+00  -2.955407e-18   5.647018e+00
        Br   5.647018e+00   8.470528e+00   2.823509e+00
        Br   8.470528e+00   5.647018e+00   2.823509e+00
        Br   8.470528e+00   8.470528e+00   3.004570e-17
        Ca   8.470528e+00   8.470528e+00   2.823509e+00
        Cs   5.647018e+00   5.647018e+00   1.708434e-17
        Br   5.647018e+00   8.470528e+00   8.470528e+00
        Br   8.470528e+00   5.647018e+00   8.470528e+00
        Br   8.470528e+00   8.470528e+00   5.647018e+00
        Ca   8.470528e+00   8.470528e+00   8.470528e+00
        Cs   5.647018e+00   5.647018e+00   5.647018e+00
PRIMCOORD         12
        40         1
        Br   2.327483e-02   2.877405e+00   2.820603e+00
        Br   2.868355e+00   1.754932e-02   2.789808e+00
        Br   2.853544e+00   2.839072e+00  -4.806943e-02
        Ca   2.832445e+00   2.850533e+00   2.818867e+00
        Cs   6.331617e-03   7.092431e-03  -2.733285e-02
        Br   2.327483e-02   2.877405e+00   8.467621e+00
        Br   2.868355e+00   1.754932e-02   8.436826e+00
        Br   2.853544e+00   2.839072e+00   5.598949e+00
        Ca   2.832445e+00   2.850533e+00   8.465885e+00
        Cs   6.331617e-03   7.092431e-03   5.619686e+00
        Br   2.327483e-02   8.524423e+00   2.820603e+00
        Br   2.868355e+00   5.664568e+00   2.789808e+00
        Br   2.853544e+00   8.486090e+00  -4.806943e-02
        Ca   2.832445e+00   8.497552e+00   2.818867e+00
        Cs   6.331617e-03   5.654111e+00  -2.733285e-02
        Br   2.327483e-02   8.524423e+00   8.467621e+00
        Br   2.868355e+00   5.664568e+00   8.436826e+00
        Br   2.853544e+00   8.486090e+00   5.598949e+00
        Ca   2.832445e+00   8.497552e+00   8.465885e+00
        Cs   6.331617e-03   5.654111e+00   5.619686e+00
        Br   5.670293e+00   2.877405e+00   2.820603e+00
        Br   8.515373e+00   1.754932e-02   2.789808e+00
        Br   8.500562e+00   2.839072e+00  -4.806943e-02
        Ca   8.479464e+00   2.850533e+00   2.818867e+00
        Cs   5.653350e+00   7.092431e-03  -2.733285e-02
        Br   5.670293e+00   2.877405e+00   8.467621e+00
        Br   8.515373e+00   1.754932e-02   8.436826e+00
        Br   8.500562e+00   2.839072e+00   5.598949e+00
        Ca   8.479464e+00   2.850533e+00   8.465885e+00
        Cs   5.653350e+00   7.092431e-03   5.619686e+00
        Br   5.670293e+00   8.524423e+00   2.820603e+00
        Br   8.515373e+00   5.664568e+00   2.789808e+00
        Br   8.500562e+00   8.486090e+00  -4.806943e-02
        Ca   8.479464e+00   8.497552e+00   2.818867e+00
        Cs   5.653350e+00   5.654111e+00  -2.733285e-02
        Br   5.670293e+00   8.524423e+00   8.467621e+00
        Br   8.515373e+00   5.664568e+00   8.436826e+00
        Br   8.500562e+00   8.486090e+00   5.598949e+00
        Ca   8.479464e+00   8.497552e+00   8.465885e+00
        Cs   5.653350e+00   5.654111e+00   5.619686e+00
PRIMCOORD         13
        40         1
        Br   3.765947e-02   2.910714e+00   2.818807e+00
        Br   2.896071e+00   2.839539e-02   2.768979e+00
        Br   2.872106e+00   2.848690e+00  -7.777797e-02
        Ca   2.837968e+00   2.867235e+00   2.815998e+00
        Cs   1.024477e-02   1.147579e-02  -4.422548e-02
        Br   3.765947e-02   2.910714e+00   8.465825e+00
        Br   2.896071e+00   2.839539e-02   8.415997e+00
        Br   2.872106e+00   2.848690e+00   5.569240e+00
        Ca   2.837968e+00   2.867235e+00   8.463016e+00
        Cs   1.024477e-02   1.147579e-02   5.602793e+00
        Br   3.765947e-02   8.557733e+00   2.818807e+00
        Br   2.896071e+00   5.675414e+00   2.768979e+00
        Br   2.872106e+00   8.495708e+00  -7.777797e-02
        Ca   2.837968e+00   8.514254e+00   2.815998e+00
        Cs   1.024477e-02   5.658494e+00  -4.422548e-02
        Br   3.765947e-02   8.557733e+00   8.465825e+00
        Br   2.896071e+00   5.675414e+00   8.415997e+00
        Br   2.872106e+00   8.495708e+00   5.569240e+00
        Ca   2.837968e+00   8.514254e+00   8.463016e+00
        Cs   1.024477e-02   5.658494e+00   5.602793e+00
        Br   5.684678e+00   2.910714e+00   2.818807e+00
        Br   8.543090e+00   2.839539e-02   2.768979e+00
        Br   8.519124e+00   2.848690e+00  -7.777797e-02
        Ca   8.484987e+00   2.867235e+00   2.815998e+00
        Cs   5.657263e+00   1.147579e-02  -4.422548e-02
        Br   5.684678e+00   2.910714e+00   8.465825e+00
        Br   8.543090e+00   2.839539e-02   8.415997e+00
        Br   8.519124e+00   2.848690e+00   5.569240e+00
        Ca   8.484987e+00   2.867235e+00   8.463016e+00
        Cs   5.657263e+00   1.147579e-02   5.602793e+00
        Br   5.684678e+00   8.557733e+00   2.818807e+00
        Br   8.543090e+00   5.675414e+00   2.768979e+00
        Br   8.519124e+00   8.495708e+00  -7.777797e-02
        Ca   8.484987e+00   8.514254e+00   2.815998e+00
        Cs   5.657263e+00   5.658494e+00  -4.422548e-02
        Br   5.684678e+00   8.557733e+00   8.465825e+00
        Br   8.543090e+00   5.675414e+00   8.415997e+00
        Br   8.519124e+00   8.495708e+00   5.569240e+00
        Ca   8.484987e+00   8.514254e+00   8.463016e+00
        Cs   5.657263e+00   5.658494e+00   5.602793e+00
PRIMCOORD         14
        40         1