# Animation of a phonon mode
# K point :        0       0       0
# Mode index :    5
# Frequency (cm^-1) : 35.7515

ANIMSTEPS 20
CRYSTAL
PRIMVEC
   1.097449e+01  -0.000000e+00   0.000000e+00
   0.000000e+00   1.097449e+01   0.000000e+00
  -0.000000e+00   0.000000e+00   1.097449e+01
PRIMCOORD          1
        40         1
        Br  -1.169925e-17   2.743624e+00   2.743624e+00
        Br   2.743624e+00   0.000000e+00   2.743624e+00
        Br   2.743624e+00   2.743624e+00   0.000000e+00
        Cd   2.743624e+00   2.743624e+00   2.743624e+00
        Cs   0.000000e+00  -6.566271e-20  -3.474232e-18
        Br  -1.169925e-17   2.743624e+00   8.230871e+00
        Br   2.743624e+00   0.000000e+00   8.230871e+00
        Br   2.743624e+00   2.743624e+00   5.487247e+00
        Cd   2.743624e+00   2.743624e+00   8.230871e+00
        Cs   0.000000e+00  -6.566271e-20   5.487247e+00
        Br  -1.169925e-17   8.230871e+00   2.743624e+00
        Br   2.743624e+00   5.487247e+00   2.743624e+00
        Br   2.743624e+00   8.230871e+00   0.000000e+00
        Cd   2.743624e+00   8.230871e+00   2.743624e+00
        Cs   0.000000e+00   5.487247e+00  -3.474232e-18
        Br  -1.169925e-17   8.230871e+00   8.230871e+00
        Br   2.743624e+00   5.487247e+00   8.230871e+00
        Br   2.743624e+00   8.230871e+00   5.487247e+00
        Cd   2.743624e+00   8.230871e+00   8.230871e+00
        Cs   0.000000e+00   5.487247e+00   5.487247e+00
        Br   5.487247e+00   2.743624e+00   2.743624e+00
        Br   8.230871e+00   0.000000e+00   2.743624e+00
        Br   8.230871e+00   2.743624e+00   0.000000e+00
        Cd   8.230871e+00   2.743624e+00   2.743624e+00
        Cs   5.487247e+00  -6.566271e-20  -3.474232e-18
        Br   5.487247e+00   2.743624e+00   8.230871e+00
        Br   8.230871e+00   0.000000e+00   8.230871e+00
        Br   8.230871e+00   2.743624e+00   5.487247e+00
        Cd   8.230871e+00   2.743624e+00   8.230871e+00
        Cs   5.487247e+00  -6.566271e-20   5.487247e+00
        Br   5.487247e+00   8.230871e+00   2.743624e+00
        Br   8.230871e+00   5.487247e+00   2.743624e+00
        Br   8.230871e+00   8.230871e+00   0.000000e+00
        Cd   8.230871e+00   8.230871e+00   2.743624e+00
        Cs   5.487247e+00   5.487247e+00  -3.474232e-18
        Br   5.487247e+00   8.230871e+00   8.230871e+00
        Br   8.230871e+00   5.487247e+00   8.230871e+00
        Br   8.230871e+00   8.230871e+00   5.487247e+00
        Cd   8.230871e+00   8.230871e+00   8.230871e+00
        Cs   5.487247e+00   5.487247e+00   5.487247e+00
PRIMCOORD          2
        40         1
        Br  -5.615210e-02   2.739752e+00   2.726687e+00
        Br   2.760603e+00   7.873224e-05   2.687351e+00
        Br   2.747308e+00   2.684973e+00   1.193661e-03
        Cd   2.742278e+00   2.761747e+00   2.743662e+00
        Cs   1.347068e-02  -3.151568e-04  -1.667503e-02
        Br  -5.615210e-02   2.739752e+00   8.213934e+00
        Br   2.760603e+00   7.873224e-05   8.174598e+00
        Br   2.747308e+00   2.684973e+00   5.488441e+00
        Cd   2.742278e+00   2.761747e+00   8.230909e+00
        Cs   1.347068e-02  -3.151568e-04   5.470572e+00
        Br  -5.615210e-02   8.226999e+00   2.726687e+00
        Br   2.760603e+00   5.487326e+00   2.687351e+00
        Br   2.747308e+00   8.172220e+00   1.193661e-03
        Cd   2.742278e+00   8.248995e+00   2.743662e+00
        Cs   1.347068e-02   5.486932e+00  -1.667503e-02
        Br  -5.615210e-02   8.226999e+00   8.213934e+00
        Br   2.760603e+00   5.487326e+00   8.174598e+00
        Br   2.747308e+00   8.172220e+00   5.488441e+00
        Cd   2.742278e+00   8.248995e+00   8.230909e+00
        Cs   1.347068e-02   5.486932e+00   5.470572e+00
        Br   5.431095e+00   2.739752e+00   2.726687e+00
        Br   8.247850e+00   7.873224e-05   2.687351e+00
        Br   8.234555e+00   2.684973e+00   1.193661e-03
        Cd   8.229525e+00   2.761747e+00   2.743662e+00
        Cs   5.500718e+00  -3.151568e-04  -1.667503e-02
        Br   5.431095e+00   2.739752e+00   8.213934e+00
        Br   8.247850e+00   7.873224e-05   8.174598e+00
        Br   8.234555e+00   2.684973e+00   5.488441e+00
        Cd   8.229525e+00   2.761747e+00   8.230909e+00
        Cs   5.500718e+00  -3.151568e-04   5.470572e+00
        Br   5.431095e+00   8.226999e+00   2.726687e+00
        Br   8.247850e+00   5.487326e+00   2.687351e+00
        Br   8.234555e+00   8.172220e+00   1.193661e-03
        Cd   8.229525e+00   8.248995e+00   2.743662e+00
        Cs   5.500718e+00   5.486932e+00  -1.667503e-02
        Br   5.431095e+00   8.226999e+00   8.213934e+00
        Br   8.247850e+00   5.487326e+00   8.174598e+00
        Br   8.234555e+00   8.172220e+00   5.488441e+00
        Cd   8.229525e+00   8.248995e+00   8.230909e+00
        Cs   5.500718e+00   5.486932e+00   5.470572e+00
PRIMCOORD          3
        40         1
        Br  -9.085600e-02   2.737359e+00   2.716219e+00
        Br   2.771096e+00   1.273914e-04   2.652572e+00
        Br   2.749585e+00   2.648725e+00   1.931384e-03
        Cd   2.741446e+00   2.772948e+00   2.743685e+00
        Cs   2.179602e-02  -5.099343e-04  -2.698076e-02
        Br  -9.085600e-02   2.737359e+00   8.203466e+00
        Br   2.771096e+00   1.273914e-04   8.139820e+00
        Br   2.749585e+00   2.648725e+00   5.489179e+00
        Cd   2.741446e+00   2.772948e+00   8.230932e+00
        Cs   2.179602e-02  -5.099343e-04   5.460267e+00
        Br  -9.085600e-02   8.224606e+00   2.716219e+00
        Br   2.771096e+00   5.487375e+00   2.652572e+00
        Br   2.749585e+00   8.135972e+00   1.931384e-03
        Cd   2.741446e+00   8.260196e+00   2.743685e+00
        Cs   2.179602e-02   5.486737e+00  -2.698076e-02
        Br  -9.085600e-02   8.224606e+00   8.203466e+00
        Br   2.771096e+00   5.487375e+00   8.139820e+00
        Br   2.749585e+00   8.135972e+00   5.489179e+00
        Cd   2.741446e+00   8.260196e+00   8.230932e+00
        Cs   2.179602e-02   5.486737e+00   5.460267e+00
        Br   5.396391e+00   2.737359e+00   2.716219e+00
        Br   8.258343e+00   1.273914e-04   2.652572e+00
        Br   8.236832e+00   2.648725e+00   1.931384e-03
        Cd   8.228693e+00   2.772948e+00   2.743685e+00
        Cs   5.509043e+00  -5.099343e-04  -2.698076e-02
        Br   5.396391e+00   2.737359e+00   8.203466e+00
        Br   8.258343e+00   1.273914e-04   8.139820e+00
        Br   8.236832e+00   2.648725e+00   5.489179e+00
        Cd   8.228693e+00   2.772948e+00   8.230932e+00
        Cs   5.509043e+00  -5.099343e-04   5.460267e+00
        Br   5.396391e+00   8.224606e+00   2.716219e+00
        Br   8.258343e+00   5.487375e+00   2.652572e+00
        Br   8.236832e+00   8.135972e+00   1.931384e-03
        Cd   8.228693e+00   8.260196e+00   2.743685e+00
        Cs   5.509043e+00   5.486737e+00  -2.698076e-02
        Br   5.396391e+00   8.224606e+00   8.203466e+00
        Br   8.258343e+00   5.487375e+00   8.139820e+00
        Br   8.236832e+00   8.135972e+00   5.489179e+00
        Cd   8.228693e+00   8.260196e+00   8.230932e+00
        Cs   5.509043e+00   5.486737e+00   5.460267e+00
PRIMCOORD          4
        40         1
        Br  -9.085600e-02   2.737359e+00   2.716219e+00
        Br   2.771096e+00   1.273914e-04   2.652572e+00
        Br   2.749585e+00   2.648725e+00   1.931384e-03
        Cd   2.741446e+00   2.772948e+00   2.743685e+00
        Cs   2.179602e-02  -5.099343e-04  -2.698076e-02
        Br  -9.085600e-02   2.737359e+00   8.203466e+00
        Br   2.771096e+00   1.273914e-04   8.139820e+00
        Br   2.749585e+00   2.648725e+00   5.489179e+00
        Cd   2.741446e+00   2.772948e+00   8.230932e+00
        Cs   2.179602e-02  -5.099343e-04   5.460267e+00
        Br  -9.085600e-02   8.224606e+00   2.716219e+00
        Br   2.771096e+00   5.487375e+00   2.652572e+00
        Br   2.749585e+00   8.135972e+00   1.931384e-03
        Cd   2.741446e+00   8.260196e+00   2.743685e+00
        Cs   2.179602e-02   5.486737e+00  -2.698076e-02
        Br  -9.085600e-02   8.224606e+00   8.203466e+00
        Br   2.771096e+00   5.487375e+00   8.139820e+00
        Br   2.749585e+00   8.135972e+00   5.489179e+00
        Cd   2.741446e+00   8.260196e+00   8.230932e+00
        Cs   2.179602e-02   5.486737e+00   5.460267e+00
        Br   5.396391e+00   2.737359e+00   2.716219e+00
        Br   8.258343e+00   1.273914e-04   2.652572e+00
        Br   8.236832e+00   2.648725e+00   1.931384e-03
        Cd   8.228693e+00   2.772948e+00   2.743685e+00
        Cs   5.509043e+00  -5.099343e-04  -2.698076e-02
        Br   5.396391e+00   2.737359e+00   8.203466e+00
        Br   8.258343e+00   1.273914e-04   8.139820e+00
        Br   8.236832e+00   2.648725e+00   5.489179e+00
        Cd   8.228693e+00   2.772948e+00   8.230932e+00
        Cs   5.509043e+00  -5.099343e-04   5.460267e+00
        Br   5.396391e+00   8.224606e+00   2.716219e+00
        Br   8.258343e+00   5.487375e+00   2.652572e+00
        Br   8.236832e+00   8.135972e+00   1.931384e-03
        Cd   8.228693e+00   8.260196e+00   2.743685e+00
        Cs   5.509043e+00   5.486737e+00  -2.698076e-02
        Br   5.396391e+00   8.224606e+00   8.203466e+00
        Br   8.258343e+00   5.487375e+00   8.139820e+00
        Br   8.236832e+00   8.135972e+00   5.489179e+00
        Cd   8.228693e+00   8.260196e+00   8.230932e+00
        Cs   5.509043e+00   5.486737e+00   5.460267e+00
PRIMCOORD          5
        40         1
        Br  -5.615210e-02   2.739752e+00   2.726687e+00
        Br   2.760603e+00   7.873224e-05   2.687351e+00
        Br   2.747308e+00   2.684973e+00   1.193661e-03
        Cd   2.742278e+00   2.761747e+00   2.743662e+00
        Cs   1.347068e-02  -3.151568e-04  -1.667503e-02
        Br  -5.615210e-02   2.739752e+00   8.213934e+00
        Br   2.760603e+00   7.873224e-05   8.174598e+00
        Br   2.747308e+00   2.684973e+00   5.488441e+00
        Cd   2.742278e+00   2.761747e+00   8.230909e+00
        Cs   1.347068e-02  -3.151568e-04   5.470572e+00
        Br  -5.615210e-02   8.226999e+00   2.726687e+00
        Br   2.760603e+00   5.487326e+00   2.687351e+00
        Br   2.747308e+00   8.172220e+00   1.193661e-03
        Cd   2.742278e+00   8.248995e+00   2.743662e+00
        Cs   1.347068e-02   5.486932e+00  -1.667503e-02
        Br  -5.615210e-02   8.226999e+00   8.213934e+00
        Br   2.760603e+00   5.487326e+00   8.174598e+00
        Br   2.747308e+00   8.172220e+00   5.488441e+00
        Cd   2.742278e+00   8.248995e+00   8.230909e+00
        Cs   1.347068e-02   5.486932e+00   5.470572e+00
        Br   5.431095e+00   2.739752e+00   2.726687e+00
        Br   8.247850e+00   7.873224e-05   2.687351e+00
        Br   8.234555e+00   2.684973e+00   1.193661e-03
        Cd   8.229525e+00   2.761747e+00   2.743662e+00
        Cs   5.500718e+00  -3.151568e-04  -1.667503e-02
        Br   5.431095e+00   2.739752e+00   8.213934e+00
        Br   8.247850e+00   7.873224e-05   8.174598e+00
        Br   8.234555e+00   2.684973e+00   5.488441e+00
        Cd   8.229525e+00   2.761747e+00   8.230909e+00
        Cs   5.500718e+00  -3.151568e-04   5.470572e+00
        Br   5.431095e+00   8.226999e+00   2.726687e+00
        Br   8.247850e+00   5.487326e+00   2.687351e+00
        Br   8.234555e+00   8.172220e+00   1.193661e-03
        Cd   8.229525e+00   8.248995e+00   2.743662e+00
        Cs   5.500718e+00   5.486932e+00  -1.667503e-02
        Br   5.431095e+00   8.226999e+00   8.213934e+00
        Br   8.247850e+00   5.487326e+00   8.174598e+00
        Br   8.234555e+00   8.172220e+00   5.488441e+00
        Cd   8.229525e+00   8.248995e+00   8.230909e+00
        Cs   5.500718e+00   5.486932e+00   5.470572e+00
PRIMCOORD          6
        40         1
        Br   0.000000e+00   2.743624e+00   2.743624e+00
        Br   2.743624e+00   1.640381e-20   2.743624e+00
        Br   2.743624e+00   2.743624e+00   2.486985e-19
        Cd   2.743624e+00   2.743624e+00   2.743624e+00
        Cs   2.806607e-18   0.000000e+00   0.000000e+00
        Br   0.000000e+00   2.743624e+00   8.230871e+00
        Br   2.743624e+00   1.640381e-20   8.230871e+00
        Br   2.743624e+00   2.743624e+00   5.487247e+00
        Cd   2.743624e+00   2.743624e+00   8.230871e+00
        Cs   2.806607e-18   0.000000e+00   5.487247e+00
        Br   0.000000e+00   8.230871e+00   2.743624e+00
        Br   2.743624e+00   5.487247e+00   2.743624e+00
        Br   2.743624e+00   8.230871e+00   2.486985e-19
        Cd   2.743624e+00   8.230871e+00   2.743624e+00
        Cs   2.806607e-18   5.487247e+00   0.000000e+00
        Br   0.000000e+00   8.230871e+00   8.230871e+00
        Br   2.743624e+00   5.487247e+00   8.230871e+00
        Br   2.743624e+00   8.230871e+00   5.487247e+00
        Cd   2.743624e+00   8.230871e+00   8.230871e+00
        Cs   2.806607e-18   5.487247e+00   5.487247e+00
        Br   5.487247e+00   2.743624e+00   2.743624e+00
        Br   8.230871e+00   1.640381e-20   2.743624e+00
        Br   8.230871e+00   2.743624e+00   2.486985e-19
        Cd   8.230871e+00   2.743624e+00   2.743624e+00
        Cs   5.487247e+00   0.000000e+00   0.000000e+00
        Br   5.487247e+00   2.743624e+00   8.230871e+00
        Br   8.230871e+00   1.640381e-20   8.230871e+00
        Br   8.230871e+00   2.743624e+00   5.487247e+00
        Cd   8.230871e+00   2.743624e+00   8.230871e+00
        Cs   5.487247e+00   0.000000e+00   5.487247e+00
        Br   5.487247e+00   8.230871e+00   2.743624e+00
        Br   8.230871e+00   5.487247e+00   2.743624e+00
        Br   8.230871e+00   8.230871e+00   2.486985e-19
        Cd   8.230871e+00   8.230871e+00   2.743624e+00
        Cs   5.487247e+00   5.487247e+00   0.000000e+00
        Br   5.487247e+00   8.230871e+00   8.230871e+00
        Br   8.230871e+00   5.487247e+00   8.230871e+00
        Br   8.230871e+00   8.230871e+00   5.487247e+00
        Cd   8.230871e+00   8.230871e+00   8.230871e+00
        Cs   5.487247e+00   5.487247e+00   5.487247e+00
PRIMCOORD          7
        40         1
        Br   5.615210e-02   2.747496e+00   2.760561e+00
        Br   2.726645e+00  -7.873224e-05   2.799896e+00
        Br   2.739940e+00   2.802274e+00  -1.193661e-03
        Cd   2.744970e+00   2.725500e+00   2.743586e+00
        Cs  -1.347068e-02   3.151568e-04   1.667503e-02
        Br   5.615210e-02   2.747496e+00   8.247808e+00
        Br   2.726645e+00  -7.873224e-05   8.287144e+00
        Br   2.739940e+00   2.802274e+00   5.486054e+00
        Cd   2.744970e+00   2.725500e+00   8.230833e+00
        Cs  -1.347068e-02   3.151568e-04   5.503922e+00
        Br   5.615210e-02   8.234743e+00   2.760561e+00
        Br   2.726645e+00   5.487169e+00   2.799896e+00
        Br   2.739940e+00   8.289522e+00  -1.193661e-03
        Cd   2.744970e+00   8.212747e+00   2.743586e+00
        Cs  -1.347068e-02   5.487562e+00   1.667503e-02
        Br   5.615210e-02   8.234743e+00   8.247808e+00
        Br   2.726645e+00   5.487169e+00   8.287144e+00
        Br   2.739940e+00   8.289522e+00   5.486054e+00
        Cd   2.744970e+00   8.212747e+00   8.230833e+00
        Cs  -1.347068e-02   5.487562e+00   5.503922e+00
        Br   5.543399e+00   2.747496e+00   2.760561e+00
        Br   8.213892e+00  -7.873224e-05   2.799896e+00
        Br   8.227187e+00   2.802274e+00  -1.193661e-03
        Cd   8.232217e+00   2.725500e+00   2.743586e+00
        Cs   5.473777e+00   3.151568e-04   1.667503e-02
        Br   5.543399e+00   2.747496e+00   8.247808e+00
        Br   8.213892e+00  -7.873224e-05   8.287144e+00
        Br   8.227187e+00   2.802274e+00   5.486054e+00
        Cd   8.232217e+00   2.725500e+00   8.230833e+00
        Cs   5.473777e+00   3.151568e-04   5.503922e+00
        Br   5.543399e+00   8.234743e+00   2.760561e+00
        Br   8.213892e+00   5.487169e+00   2.799896e+00
        Br   8.227187e+00   8.289522e+00  -1.193661e-03
        Cd   8.232217e+00   8.212747e+00   2.743586e+00
        Cs   5.473777e+00   5.487562e+00   1.667503e-02
        Br   5.543399e+00   8.234743e+00   8.247808e+00
        Br   8.213892e+00   5.487169e+00   8.287144e+00
        Br   8.227187e+00   8.289522e+00   5.486054e+00
        Cd   8.232217e+00   8.212747e+00   8.230833e+00
        Cs   5.473777e+00   5.487562e+00   5.503922e+00
PRIMCOORD          8
        40         1
        Br   9.085600e-02   2.749889e+00   2.771028e+00
        Br   2.716151e+00  -1.273914e-04   2.834675e+00
        Br   2.737663e+00   2.838523e+00  -1.931384e-03
        Cd   2.745802e+00   2.714299e+00   2.743562e+00
        Cs  -2.179602e-02   5.099343e-04   2.698076e-02
        Br   9.085600e-02   2.749889e+00   8.258276e+00
        Br   2.716151e+00  -1.273914e-04   8.321922e+00
        Br   2.737663e+00   2.838523e+00   5.485316e+00
        Cd   2.745802e+00   2.714299e+00   8.230809e+00
        Cs  -2.179602e-02   5.099343e-04   5.514228e+00
        Br   9.085600e-02   8.237136e+00   2.771028e+00
        Br   2.716151e+00   5.487120e+00   2.834675e+00
        Br   2.737663e+00   8.325770e+00  -1.931384e-03
        Cd   2.745802e+00   8.201546e+00   2.743562e+00
        Cs  -2.179602e-02   5.487757e+00   2.698076e-02
        Br   9.085600e-02   8.237136e+00   8.258276e+00
        Br   2.716151e+00   5.487120e+00   8.321922e+00
        Br   2.737663e+00   8.325770e+00   5.485316e+00
        Cd   2.745802e+00   8.201546e+00   8.230809e+00
        Cs  -2.179602e-02   5.487757e+00   5.514228e+00
        Br   5.578103e+00   2.749889e+00   2.771028e+00
        Br   8.203398e+00  -1.273914e-04   2.834675e+00
        Br   8.224910e+00   2.838523e+00  -1.931384e-03
        Cd   8.233049e+00   2.714299e+00   2.743562e+00
        Cs   5.465451e+00   5.099343e-04   2.698076e-02
        Br   5.578103e+00   2.749889e+00   8.258276e+00
        Br   8.203398e+00  -1.273914e-04   8.321922e+00
        Br   8.224910e+00   2.838523e+00   5.485316e+00
        Cd   8.233049e+00   2.714299e+00   8.230809e+00
        Cs   5.465451e+00   5.099343e-04   5.514228e+00
        Br   5.578103e+00   8.237136e+00   2.771028e+00
        Br   8.203398e+00   5.487120e+00   2.834675e+00
        Br   8.224910e+00   8.325770e+00  -1.931384e-03
        Cd   8.233049e+00   8.201546e+00   2.743562e+00
        Cs   5.465451e+00   5.487757e+00   2.698076e-02
        Br   5.578103e+00   8.237136e+00   8.258276e+00
        Br   8.203398e+00   5.487120e+00   8.321922e+00
        Br   8.224910e+00   8.325770e+00   5.485316e+00
        Cd   8.233049e+00   8.201546e+00   8.230809e+00
        Cs   5.465451e+00   5.487757e+00   5.514228e+00
PRIMCOORD          9
        40         1
        Br   9.085600e-02   2.749889e+00   2.771028e+00
        Br   2.716151e+00  -1.273914e-04   2.834675e+00
        Br   2.737663e+00   2.838523e+00  -1.931384e-03
        Cd   2.745802e+00   2.714299e+00   2.743562e+00
        Cs  -2.179602e-02   5.099343e-04   2.698076e-02
        Br   9.085600e-02   2.749889e+00   8.258276e+00
        Br   2.716151e+00  -1.273914e-04   8.321922e+00
        Br   2.737663e+00   2.838523e+00   5.485316e+00
        Cd   2.745802e+00   2.714299e+00   8.230809e+00
        Cs  -2.179602e-02   5.099343e-04   5.514228e+00
        Br   9.085600e-02   8.237136e+00   2.771028e+00
        Br   2.716151e+00   5.487120e+00   2.834675e+00
        Br   2.737663e+00   8.325770e+00  -1.931384e-03
        Cd   2.745802e+00   8.201546e+00   2.743562e+00
        Cs  -2.179602e-02   5.487757e+00   2.698076e-02
        Br   9.085600e-02   8.237136e+00   8.258276e+00
        Br   2.716151e+00   5.487120e+00   8.321922e+00
        Br   2.737663e+00   8.325770e+00   5.485316e+00
        Cd   2.745802e+00   8.201546e+00   8.230809e+00
        Cs  -2.179602e-02   5.487757e+00   5.514228e+00
        Br   5.578103e+00   2.749889e+00   2.771028e+00
        Br   8.203398e+00  -1.273914e-04   2.834675e+00
        Br   8.224910e+00   2.838523e+00  -1.931384e-03
        Cd   8.233049e+00   2.714299e+00   2.743562e+00
        Cs   5.465451e+00   5.099343e-04   2.698076e-02
        Br   5.578103e+00   2.749889e+00   8.258276e+00
        Br   8.203398e+00  -1.273914e-04   8.321922e+00
        Br   8.224910e+00   2.838523e+00   5.485316e+00
        Cd   8.233049e+00   2.714299e+00   8.230809e+00
        Cs   5.465451e+00   5.099343e-04   5.514228e+00
        Br   5.578103e+00   8.237136e+00   2.771028e+00
        Br   8.203398e+00   5.487120e+00   2.834675e+00
        Br   8.224910e+00   8.325770e+00  -1.931384e-03
        Cd   8.233049e+00   8.201546e+00   2.743562e+00
        Cs   5.465451e+00   5.487757e+00   2.698076e-02
        Br   5.578103e+00   8.237136e+00   8.258276e+00
        Br   8.203398e+00   5.487120e+00   8.321922e+00
        Br   8.224910e+00   8.325770e+00   5.485316e+00
        Cd   8.233049e+00   8.201546e+00   8.230809e+00
        Cs   5.465451e+00   5.487757e+00   5.514228e+00
PRIMCOORD         10
        40         1
        Br   5.615210e-02   2.747496e+00   2.760561e+00
        Br   2.726645e+00  -7.873224e-05   2.799896e+00
        Br   2.739940e+00   2.802274e+00  -1.193661e-03
        Cd   2.744970e+00   2.725500e+00   2.743586e+00
        Cs  -1.347068e-02   3.151568e-04   1.667503e-02
        Br   5.615210e-02   2.747496e+00   8.247808e+00
        Br   2.726645e+00  -7.873224e-05   8.287144e+00
        Br   2.739940e+00   2.802274e+00   5.486054e+00
        Cd   2.744970e+00   2.725500e+00   8.230833e+00
        Cs  -1.347068e-02   3.151568e-04   5.503922e+00
        Br   5.615210e-02   8.234743e+00   2.760561e+00
        Br   2.726645e+00   5.487169e+00   2.799896e+00
        Br   2.739940e+00   8.289522e+00  -1.193661e-03
        Cd   2.744970e+00   8.212747e+00   2.743586e+00
        Cs  -1.347068e-02   5.487562e+00   1.667503e-02
        Br   5.615210e-02   8.234743e+00   8.247808e+00
        Br   2.726645e+00   5.487169e+00   8.287144e+00
        Br   2.739940e+00   8.289522e+00   5.486054e+00
        Cd   2.744970e+00   8.212747e+00   8.230833e+00
        Cs  -1.347068e-02   5.487562e+00   5.503922e+00
        Br   5.543399e+00   2.747496e+00   2.760561e+00
        Br   8.213892e+00  -7.873224e-05   2.799896e+00
        Br   8.227187e+00   2.802274e+00  -1.193661e-03
        Cd   8.232217e+00   2.725500e+00   2.743586e+00
        Cs   5.473777e+00   3.151568e-04   1.667503e-02
        Br   5.543399e+00   2.747496e+00   8.247808e+00
        Br   8.213892e+00  -7.873224e-05   8.287144e+00
        Br   8.227187e+00   2.802274e+00   5.486054e+00
        Cd   8.232217e+00   2.725500e+00   8.230833e+00
        Cs   5.473777e+00   3.151568e-04   5.503922e+00
        Br   5.543399e+00   8.234743e+00   2.760561e+00
        Br   8.213892e+00   5.487169e+00   2.799896e+00
        Br   8.227187e+00   8.289522e+00  -1.193661e-03
        Cd   8.232217e+00   8.212747e+00   2.743586e+00
        Cs   5.473777e+00   5.487562e+00   1.667503e-02
        Br   5.543399e+00   8.234743e+00   8.247808e+00
        Br   8.213892e+00   5.487169e+00   8.287144e+00
        Br   8.227187e+00   8.289522e+00   5.486054e+00
        Cd   8.232217e+00   8.212747e+00   8.230833e+00
        Cs   5.473777e+00   5.487562e+00   5.503922e+00
PRIMCOORD         11
        40         1
        Br   1.169925e-17   2.743624e+00   2.743624e+00
        Br   2.743624e+00  -3.280762e-20   2.743624e+00
        Br   2.743624e+00   2.743624e+00  -4.973970e-19
        Cd   2.743624e+00   2.743624e+00   2.743624e+00
        Cs  -5.613214e-18   6.566271e-20   3.474232e-18
        Br   1.169925e-17   2.743624e+00   8.230871e+00
        Br   2.743624e+00  -3.280762e-20   8.230871e+00
        Br   2.743624e+00   2.743624e+00   5.487247e+00
        Cd   2.743624e+00   2.743624e+00   8.230871e+00
        Cs  -5.613214e-18   6.566271e-20   5.487247e+00
        Br   1.169925e-17   8.230871e+00   2.743624e+00
        Br   2.743624e+00   5.487247e+00   2.743624e+00
        Br   2.743624e+00   8.230871e+00  -4.973970e-19
        Cd   2.743624e+00   8.230871e+00   2.743624e+00
        Cs  -5.613214e-18   5.487247e+00   3.474232e-18
        Br   1.169925e-17   8.230871e+00   8.230871e+00
        Br   2.743624e+00   5.487247e+00   8.230871e+00
        Br   2.743624e+00   8.230871e+00   5.487247e+00
        Cd   2.743624e+00   8.230871e+00   8.230871e+00
        Cs  -5.613214e-18   5.487247e+00   5.487247e+00
        Br   5.487247e+00   2.743624e+00   2.743624e+00
        Br   8.230871e+00  -3.280762e-20   2.743624e+00
        Br   8.230871e+00   2.743624e+00  -4.973970e-19
        Cd   8.230871e+00   2.743624e+00   2.743624e+00
        Cs   5.487247e+00   6.566271e-20   3.474232e-18
        Br   5.487247e+00   2.743624e+00   8.230871e+00
        Br   8.230871e+00  -3.280762e-20   8.230871e+00
        Br   8.230871e+00   2.743624e+00   5.487247e+00
        Cd   8.230871e+00   2.743624e+00   8.230871e+00
        Cs   5.487247e+00   6.566271e-20   5.487247e+00
        Br   5.487247e+00   8.230871e+00   2.743624e+00
        Br   8.230871e+00   5.487247e+00   2.743624e+00
        Br   8.230871e+00   8.230871e+00  -4.973970e-19
        Cd   8.230871e+00   8.230871e+00   2.743624e+00
        Cs   5.487247e+00   5.487247e+00   3.474232e-18
        Br   5.487247e+00   8.230871e+00   8.230871e+00
        Br   8.230871e+00   5.487247e+00   8.230871e+00
        Br   8.230871e+00   8.230871e+00   5.487247e+00
        Cd   8.230871e+00   8.230871e+00   8.230871e+00
        Cs   5.487247e+00   5.487247e+00   5.487247e+00
PRIMCOORD         12
        40         1
        Br  -5.615210e-02   2.739752e+00   2.726687e+00
        Br   2.760603e+00   7.873224e-05   2.687351e+00
        Br   2.747308e+00   2.684973e+00   1.193661e-03
        Cd   2.742278e+00   2.761747e+00   2.743662e+00
        Cs   1.347068e-02  -3.151568e-04  -1.667503e-02
        Br  -5.615210e-02   2.739752e+00   8.213934e+00
        Br   2.760603e+00   7.873224e-05   8.174598e+00
        Br   2.747308e+00   2.684973e+00   5.488441e+00
        Cd   2.742278e+00   2.761747e+00   8.230909e+00
        Cs   1.347068e-02  -3.151568e-04   5.470572e+00
        Br  -5.615210e-02   8.226999e+00   2.726687e+00
        Br   2.760603e+00   5.487326e+00   2.687351e+00
        Br   2.747308e+00   8.172220e+00   1.193661e-03
        Cd   2.742278e+00   8.248995e+00   2.743662e+00
        Cs   1.347068e-02   5.486932e+00  -1.667503e-02
        Br  -5.615210e-02   8.226999e+00   8.213934e+00
        Br   2.760603e+00   5.487326e+00   8.174598e+00
        Br   2.747308e+00   8.172220e+00   5.488441e+00
        Cd   2.742278e+00   8.248995e+00   8.230909e+00
        Cs   1.347068e-02   5.486932e+00   5.470572e+00
        Br   5.431095e+00   2.739752e+00   2.726687e+00
        Br   8.247850e+00   7.873224e-05   2.687351e+00
        Br   8.234555e+00   2.684973e+00   1.193661e-03
        Cd   8.229525e+00   2.761747e+00   2.743662e+00
        Cs   5.500718e+00  -3.151568e-04  -1.667503e-02
        Br   5.431095e+00   2.739752e+00   8.213934e+00
        Br   8.247850e+00   7.873224e-05   8.174598e+00
        Br   8.234555e+00   2.684973e+00   5.488441e+00
        Cd   8.229525e+00   2.761747e+00   8.230909e+00
        Cs   5.500718e+00  -3.151568e-04   5.470572e+00
        Br   5.431095e+00   8.226999e+00   2.726687e+00
        Br   8.247850e+00   5.487326e+00   2.687351e+00
        Br   8.234555e+00   8.172220e+00   1.193661e-03
        Cd   8.229525e+00   8.248995e+00   2.743662e+00
        Cs   5.500718e+00   5.486932e+00  -1.667503e-02
        Br   5.431095e+00   8.226999e+00   8.213934e+00
        Br   8.247850e+00   5.487326e+00   8.174598e+00
        Br   8.234555e+00   8.172220e+00   5.488441e+00
        Cd   8.229525e+00   8.248995e+00   8.230909e+00
        Cs   5.500718e+00   5.486932e+00   5.470572e+00
PRIMCOORD         13
        40         1
        Br  -9.085600e-02   2.737359e+00   2.716219e+00
        Br   2.771096e+00   1.273914e-04   2.652572e+00
        Br   2.749585e+00   2.648725e+00   1.931384e-03
        Cd   2.741446e+00   2.772948e+00   2.743685e+00
        Cs   2.179602e-02  -5.099343e-04  -2.698076e-02
        Br  -9.085600e-02   2.737359e+00   8.203466e+00
        Br   2.771096e+00   1.273914e-04   8.139820e+00
        Br   2.749585e+00   2.648725e+00   5.489179e+00
        Cd   2.741446e+00   2.772948e+00   8.230932e+00
        Cs   2.179602e-02  -5.099343e-04   5.460267e+00
        Br  -9.085600e-02   8.224606e+00   2.716219e+00
        Br   2.771096e+00   5.487375e+00   2.652572e+00
        Br   2.749585e+00   8.135972e+00   1.931384e-03
        Cd   2.741446e+00   8.260196e+00   2.743685e+00
        Cs   2.179602e-02   5.486737e+00  -2.698076e-02
        Br  -9.085600e-02   8.224606e+00   8.203466e+00
        Br   2.771096e+00   5.487375e+00   8.139820e+00
        Br   2.749585e+00   8.135972e+00   5.489179e+00
        Cd   2.741446e+00   8.260196e+00   8.230932e+00
        Cs   2.179602e-02   5.486737e+00   5.460267e+00
        Br   5.396391e+00   2.737359e+00   2.716219e+00
        Br   8.258343e+00   1.273914e-04   2.652572e+00
        Br   8.236832e+00   2.648725e+00   1.931384e-03
        Cd   8.228693e+00   2.772948e+00   2.743685e+00
        Cs   5.509043e+00  -5.099343e-04  -2.698076e-02
        Br   5.396391e+00   2.737359e+00   8.203466e+00
        Br   8.258343e+00   1.273914e-04   8.139820e+00
        Br   8.236832e+00   2.648725e+00   5.489179e+00
        Cd   8.228693e+00   2.772948e+00   8.230932e+00
        Cs   5.509043e+00  -5.099343e-04   5.460267e+00
        Br   5.396391e+00   8.224606e+00   2.716219e+00
        Br   8.258343e+00   5.487375e+00   2.652572e+00
        Br   8.236832e+00   8.135972e+00   1.931384e-03
        Cd   8.228693e+00   8.260196e+00   2.743685e+00
        Cs   5.509043e+00   5.486737e+00  -2.698076e-02
        Br   5.396391e+00   8.224606e+00   8.203466e+00
        Br   8.258343e+00   5.487375e+00   8.139820e+00
        Br   8.236832e+00   8.135972e+00   5.489179e+00
        Cd   8.228693e+00   8.260196e+00   8.230932e+00
        Cs   5.509043e+00   5.486737e+00   5.460267e+00
PRIMCOORD         14
        40         1