ANIMSTEPS 3750
CRYSTAL
PRIMVEC
   5.487247e+00  -0.000000e+00   0.000000e+00
   0.000000e+00   5.487247e+00   0.000000e+00
  -0.000000e+00   0.000000e+00   5.487247e+00
PRIMCOORD          1
         5         1
        Br   0.000000e+00   2.743624e+00   2.743624e+00   6.829952e-05  -3.146808e-05  -1.593234e-07
        Br   2.743624e+00   0.000000e+00   2.743624e+00   6.829952e-05  -3.146808e-05  -1.593234e-07
        Br   2.743624e+00   2.743624e+00   0.000000e+00   6.829952e-05  -3.146808e-05  -1.593234e-07
        Cd   2.743624e+00   2.743624e+00   2.743624e+00   6.829952e-05  -3.146808e-05  -1.593234e-07
        Cs   0.000000e+00   0.000000e+00   0.000000e+00   6.829952e-05  -3.146808e-05  -1.593234e-07
PRIMCOORD          2
         5         1
        Br   0.000000e+00   2.743624e+00   2.743624e+00   2.780615e-05   6.017173e-05   3.551438e-05
        Br   2.743624e+00   0.000000e+00   2.743624e+00   2.780615e-05   6.017173e-05   3.551438e-05
        Br   2.743624e+00   2.743624e+00   0.000000e+00   2.780615e-05   6.017173e-05   3.551438e-05
        Cd   2.743624e+00   2.743624e+00   2.743624e+00   2.780615e-05   6.017173e-05   3.551438e-05
        Cs   0.000000e+00   0.000000e+00   0.000000e+00   2.780615e-05   6.017173e-05   3.551438e-05
PRIMCOORD          3
         5         1
        Br   0.000000e+00   2.743624e+00   2.743624e+00  -1.473374e-05  -3.231429e-05   6.628570e-05
        Br   2.743624e+00   0.000000e+00   2.743624e+00  -1.473374e-05  -3.231429e-05   6.628570e-05
        Br   2.743624e+00   2.743624e+00   0.000000e+00  -1.473374e-05  -3.231429e-05   6.628570e-05
        Cd   2.743624e+00   2.743624e+00   2.743624e+00  -1.473374e-05  -3.231429e-05   6.628570e-05
        Cs   0.000000e+00   0.000000e+00   0.000000e+00  -1.473374e-05  -3.231429e-05   6.628570e-05
PRIMCOORD          4
         5         1
        Br   0.000000e+00   2.743624e+00   2.743624e+00  -5.271432e-05   2.372314e-18  -1.692453e-05
        Br   2.743624e+00   0.000000e+00   2.743624e+00   2.789596e-05  -7.405764e-18  -1.692453e-05
        Br   2.743624e+00   2.743624e+00   0.000000e+00   2.789596e-05   2.011205e-18   3.198187e-05
        Cd   2.743624e+00   2.743624e+00   2.743624e+00  -9.040247e-05  -1.136427e-17   5.484734e-05
        Cs   0.000000e+00   0.000000e+00   0.000000e+00   7.460860e-05   1.140151e-17  -4.526517e-05
PRIMCOORD          5
         5         1
        Br   0.000000e+00   2.743624e+00   2.743624e+00  -3.198187e-05   1.200183e-18   2.789596e-05
        Br   2.743624e+00   0.000000e+00   2.743624e+00   1.692453e-05  -3.784037e-18   2.789596e-05
        Br   2.743624e+00   2.743624e+00   0.000000e+00   1.692453e-05   1.018422e-18  -5.271432e-05
        Cd   2.743624e+00   2.743624e+00   2.743624e+00  -5.484734e-05  -5.805897e-18  -9.040247e-05
        Cs   0.000000e+00   0.000000e+00   0.000000e+00   4.526517e-05   5.806804e-18   7.460860e-05
PRIMCOORD          6
         5         1
        Br   0.000000e+00   2.743624e+00   2.743624e+00   8.128100e-18   1.907702e-05   3.211163e-19
        Br   2.743624e+00   0.000000e+00   2.743624e+00  -4.140209e-18  -6.375175e-05   2.420093e-19
        Br   2.743624e+00   2.743624e+00   0.000000e+00  -4.102327e-18   1.907702e-05  -6.302467e-19
        Cd   2.743624e+00   2.743624e+00   2.743624e+00   1.385699e-17  -9.792740e-05  -1.062151e-18
        Cs   0.000000e+00   0.000000e+00   0.000000e+00  -1.126552e-17   9.821217e-05   7.893100e-19
PRIMCOORD          7
         5         1
        Br   0.000000e+00   2.743624e+00   2.743624e+00   6.661483e-20   2.640634e-06   1.309698e-04
        Br   2.743624e+00   0.000000e+00   2.743624e+00   1.912658e-06   3.251812e-20  -1.309698e-04
        Br   2.743624e+00   2.743624e+00   0.000000e+00  -1.912658e-06  -2.640634e-06   3.328364e-20
        Cd   2.743624e+00   2.743624e+00   2.743624e+00   1.175608e-19   4.632716e-20   5.543975e-20
        Cs   0.000000e+00   0.000000e+00   0.000000e+00   3.047011e-20  -5.569760e-21   1.132060e-20
PRIMCOORD          8
         5         1
        Br   0.000000e+00   2.743624e+00   2.743624e+00   2.690252e-20  -9.732778e-05   3.242194e-06
        Br   2.743624e+00   0.000000e+00   2.743624e+00  -8.763852e-05   3.996463e-20  -3.242194e-06
        Br   2.743624e+00   2.743624e+00   0.000000e+00   8.763852e-05   9.732778e-05   5.437707e-21
        Cd   2.743624e+00   2.743624e+00   2.743624e+00   9.675989e-20   5.497830e-20   1.001016e-20
        Cs   0.000000e+00   0.000000e+00   0.000000e+00  -7.231083e-20  -4.205779e-20   2.516553e-21
PRIMCOORD          9
         5         1
        Br   0.000000e+00   2.743624e+00   2.743624e+00   3.090170e-19   8.765871e-05  -3.455185e-07
        Br   2.743624e+00   0.000000e+00   2.743624e+00  -9.736298e-05  -2.297992e-21   3.455185e-07
        Br   2.743624e+00   2.743624e+00   0.000000e+00   9.736298e-05  -8.765871e-05   3.125874e-21
        Cd   2.743624e+00   2.743624e+00   2.743624e+00   3.239313e-19   3.270114e-20   9.402902e-21
        Cs   0.000000e+00   0.000000e+00   0.000000e+00  -4.238861e-19   6.273323e-20   5.837629e-20
PRIMCOORD         10
         5         1
        Br   0.000000e+00   2.743624e+00   2.743624e+00   2.327918e-07   8.904109e-21   9.848800e-05
        Br   2.743624e+00   0.000000e+00   2.743624e+00   3.669586e-06  -9.647009e-23   9.848800e-05
        Br   2.743624e+00   2.743624e+00   0.000000e+00   3.669586e-06  -4.509410e-20   6.247897e-06
        Cd   2.743624e+00   2.743624e+00   2.743624e+00  -1.604515e-06   5.631222e-21  -4.306358e-05
        Cs   0.000000e+00   0.000000e+00   0.000000e+00  -3.195144e-06  -2.226725e-20  -8.575446e-05
PRIMCOORD         11
         5         1
        Br   0.000000e+00   2.743624e+00   2.743624e+00  -6.247897e-06   3.190232e-19   3.669586e-06
        Br   2.743624e+00   0.000000e+00   2.743624e+00  -9.848800e-05   1.949146e-20   3.669586e-06
        Br   2.743624e+00   2.743624e+00   0.000000e+00  -9.848800e-05  -9.345640e-20   2.327918e-07
        Cd   2.743624e+00   2.743624e+00   2.743624e+00   4.306358e-05   1.893835e-21  -1.604515e-06
        Cs   0.000000e+00   0.000000e+00   0.000000e+00   8.575446e-05   8.824373e-21  -3.195144e-06
PRIMCOORD         12
         5         1
        Br   0.000000e+00   2.743624e+00   2.743624e+00   3.326604e-20  -1.055278e-04  -3.356879e-20
        Br   2.743624e+00   0.000000e+00   2.743624e+00  -4.314101e-20   3.783749e-05   2.937089e-20
        Br   2.743624e+00   2.743624e+00   0.000000e+00  -1.058275e-19  -1.055278e-04  -9.552717e-21
        Cd   2.743624e+00   2.743624e+00   2.743624e+00   5.388974e-20   3.831965e-05  -5.619667e-22
        Cs   0.000000e+00   0.000000e+00   0.000000e+00   9.074073e-20   7.172753e-05  -3.696323e-22
PRIMCOORD         13
         5         1
        Br   0.000000e+00   2.743624e+00   2.743624e+00   1.575805e-04  -4.870737e-21   1.731111e-08
        Br   2.743624e+00   0.000000e+00   2.743624e+00  -2.703057e-05  -8.726880e-20   1.731111e-08
        Br   2.743624e+00   2.743624e+00   0.000000e+00  -2.703057e-05   4.351259e-20  -1.009188e-07
        Cd   2.743624e+00   2.743624e+00   2.743624e+00  -7.555047e-05   4.228045e-20   4.838457e-08
        Cs   0.000000e+00   0.000000e+00   0.000000e+00   1.662929e-06   3.476531e-21  -1.064985e-09
PRIMCOORD         14
         5         1
        Br   0.000000e+00   2.743624e+00   2.743624e+00  -1.009188e-07   1.114389e-21   2.703057e-05
        Br   2.743624e+00   0.000000e+00   2.743624e+00   1.731111e-08   1.320112e-20   2.703057e-05
        Br   2.743624e+00   2.743624e+00   0.000000e+00   1.731111e-08  -2.160833e-21  -1.575805e-04
        Cd   2.743624e+00   2.743624e+00   2.743624e+00   4.838457e-08  -1.207175e-20   7.555047e-05
        Cs   0.000000e+00   0.000000e+00   0.000000e+00  -1.064985e-09   3.365478e-21  -1.662929e-06
PRIMCOORD         15
         5         1
        Br   0.000000e+00   2.743624e+00   2.743624e+00   7.382521e-20  -2.929562e-06  -2.434316e-21
        Br   2.743624e+00   0.000000e+00   2.743624e+00  -1.998744e-20   1.522379e-04  -4.733567e-21
        Br   2.743624e+00   2.743624e+00   0.000000e+00  -1.966579e-20  -2.929562e-06   2.038092e-20
        Cd   2.743624e+00   2.743624e+00   2.743624e+00  -3.711528e-20  -8.767889e-05  -6.935446e-21
        Cs   0.000000e+00   0.000000e+00   0.000000e+00   1.502013e-20  -1.384597e-05   7.294713e-23
PRIMCOORD         16
         5         1
        Br   0.000000e+00   2.743624e+00   2.743624e+00  -5.099826e-06  -6.789465e-19  -7.499335e-05
        Br   2.743624e+00   0.000000e+00   2.743624e+00  -5.104946e-06  -6.803305e-19  -7.501763e-05
        Br   2.743624e+00   2.743624e+00   0.000000e+00  -5.101428e-06  -7.202480e-19  -7.496981e-05
        Cd   2.743624e+00   2.743624e+00   2.743624e+00  -5.100246e-06  -6.734699e-19  -7.497599e-05
        Cs   0.000000e+00   0.000000e+00   0.000000e+00  -5.107195e-06  -7.120110e-19  -7.505068e-05
PRIMCOORD         17
         5         1
        Br   0.000000e+00   2.743624e+00   2.743624e+00  -7.493752e-05  -4.235613e-18   5.103626e-06
        Br   2.743624e+00   0.000000e+00   2.743624e+00  -7.501275e-05  -4.253114e-18   5.105278e-06
        Br   2.743624e+00   2.743624e+00   0.000000e+00  -7.496105e-05  -4.525885e-18   5.102024e-06
        Cd   2.743624e+00   2.743624e+00   2.743624e+00  -7.494370e-05  -4.353830e-18   5.102444e-06
        Cs   0.000000e+00   0.000000e+00   0.000000e+00  -7.504580e-05  -4.187295e-18   5.107527e-06
PRIMCOORD         18
         5         1
        Br   0.000000e+00   2.743624e+00   2.743624e+00  -1.412807e-18   6.161497e-05  -4.544696e-19
        Br   2.743624e+00   0.000000e+00   2.743624e+00  -1.630478e-18   6.275782e-05  -4.827378e-19
        Br   2.743624e+00   2.743624e+00   0.000000e+00  -1.356546e-18   6.161497e-05  -5.153239e-19
        Cd   2.743624e+00   2.743624e+00   2.743624e+00  -1.402889e-18   6.134202e-05  -4.754321e-19
        Cs   0.000000e+00   0.000000e+00   0.000000e+00  -1.604625e-18   6.311886e-05  -4.837304e-19
PRIMCOORD         19
         5         1
        Br   0.000000e+00   2.743624e+00   2.743624e+00  -9.968271e-06   1.357828e-19  -3.211595e-05
        Br   2.743624e+00   0.000000e+00   2.743624e+00   5.279723e-06  -4.944360e-19  -3.221193e-05
        Br   2.743624e+00   2.743624e+00   0.000000e+00   5.263101e-06   1.791816e-19   6.082735e-05
        Cd   2.743624e+00   2.743624e+00   2.743624e+00  -1.709283e-05  -7.594774e-19   1.043021e-04
        Cs   0.000000e+00   0.000000e+00   0.000000e+00   1.411468e-05   7.631580e-19  -8.611455e-05
PRIMCOORD         20
         5         1
        Br   0.000000e+00   2.743624e+00   2.743624e+00  -6.081622e-05   1.878850e-19   5.264064e-06
        Br   2.743624e+00   0.000000e+00   2.743624e+00   3.221148e-05  -1.098979e-18   5.279797e-06
        Br   2.743624e+00   2.743624e+00   0.000000e+00   3.211007e-05   5.065825e-19  -9.970096e-06
        Cd   2.743624e+00   2.743624e+00   2.743624e+00  -1.042830e-04  -1.700091e-18  -1.709596e-05
        Cs   0.000000e+00   0.000000e+00   0.000000e+00   8.611335e-05   1.650904e-18   1.411487e-05
PRIMCOORD         21
         5         1
        Br   0.000000e+00   2.743624e+00   2.743624e+00   1.116645e-18   1.880462e-05   1.548528e-19
        Br   2.743624e+00   0.000000e+00   2.743624e+00  -5.853822e-19  -6.391861e-05   1.657640e-19
        Br   2.743624e+00   2.743624e+00   0.000000e+00  -2.688706e-19   1.880462e-05  -3.501868e-19
        Cd   2.743624e+00   2.743624e+00   2.743624e+00   1.811573e-18  -9.799502e-05  -5.318098e-19
        Cs   0.000000e+00   0.000000e+00   0.000000e+00  -1.636600e-18   9.803112e-05   4.106005e-19
PRIMCOORD         22
         5         1
        Br   0.000000e+00   2.743624e+00   2.743624e+00  -9.859235e-11  -7.901807e-17  -1.310178e-04
        Br   2.743624e+00   0.000000e+00   2.743624e+00  -1.366659e-06   3.892983e-20   1.309213e-04
        Br   2.743624e+00   2.743624e+00   0.000000e+00   1.367675e-06   7.907272e-17   9.444748e-09
        Cd   2.743624e+00   2.743624e+00   2.743624e+00  -7.789349e-10   2.078485e-20   7.461881e-08
        Cs   0.000000e+00   0.000000e+00   0.000000e+00  -4.660152e-10  -1.396832e-20   4.464265e-08
PRIMCOORD         23
         5         1
        Br   0.000000e+00   2.743624e+00   2.743624e+00   9.444808e-09   1.801732e-15  -1.367667e-06
        Br   2.743624e+00   0.000000e+00   2.743624e+00   1.309213e-04  -4.497078e-20   1.366660e-06
        Br   2.743624e+00   2.743624e+00   0.000000e+00  -1.310186e-04  -1.801552e-15   9.859172e-11
        Cd   2.743624e+00   2.743624e+00   2.743624e+00   7.461928e-08  -6.482048e-20   7.789299e-10
        Cs   0.000000e+00   0.000000e+00   0.000000e+00   4.464265e-08   1.253963e-19   4.660152e-10
PRIMCOORD         24
         5         1
        Br   0.000000e+00   2.743624e+00   2.743624e+00   1.475777e-19  -1.308772e-04   6.040093e-17
        Br   2.743624e+00   0.000000e+00   2.743624e+00   1.805881e-15   2.684610e-20  -6.031557e-17
        Br   2.743624e+00   2.743624e+00   0.000000e+00  -1.808939e-15   1.308772e-04   1.760411e-20
        Cd   2.743624e+00   2.743624e+00   2.743624e+00   9.750576e-19   4.077628e-20  -6.424445e-20
        Cs   0.000000e+00   0.000000e+00   0.000000e+00   2.119121e-19  -1.355051e-19  -4.257663e-20
PRIMCOORD         25
         5         1
        Br   0.000000e+00   2.743624e+00   2.743624e+00   6.216766e-06   2.620658e-19   8.872741e-06
        Br   2.743624e+00   0.000000e+00   2.743624e+00   9.826973e-05   2.963584e-20   8.895874e-06
        Br   2.743624e+00   2.743624e+00   0.000000e+00   9.801718e-05  -3.292651e-19   5.627560e-07
        Cd   2.743624e+00   2.743624e+00   2.743624e+00  -4.290131e-05   8.333058e-20  -3.883526e-06
        Cs   0.000000e+00   0.000000e+00   0.000000e+00  -8.544607e-05  -1.154736e-19  -7.735011e-06
PRIMCOORD         26
         5         1
        Br   0.000000e+00   2.743624e+00   2.743624e+00   5.627729e-07   7.430236e-21  -9.801424e-05
        Br   2.743624e+00   0.000000e+00   2.743624e+00   8.895870e-06   5.941276e-21  -9.826978e-05
        Br   2.743624e+00   2.743624e+00   0.000000e+00   8.873007e-06  -5.098459e-21  -6.216579e-06
        Cd   2.743624e+00   2.743624e+00   2.743624e+00  -3.883642e-06   1.059003e-20   4.290003e-05
        Cs   0.000000e+00   0.000000e+00   0.000000e+00  -7.735007e-06  -1.396105e-21   8.544611e-05
PRIMCOORD         27
         5         1
        Br   0.000000e+00   2.743624e+00   2.743624e+00   2.878067e-20   1.049676e-04   1.842466e-20
        Br   2.743624e+00   0.000000e+00   2.743624e+00  -3.199192e-20  -3.778528e-05  -2.349102e-20
        Br   2.743624e+00   2.743624e+00   0.000000e+00   4.768035e-20   1.049676e-04   4.162900e-21
        Cd   2.743624e+00   2.743624e+00   2.743624e+00  -2.886486e-20  -3.817808e-05  -4.520134e-21
        Cs   0.000000e+00   0.000000e+00   0.000000e+00  -2.122350e-20  -7.151643e-05   2.194359e-21
PRIMCOORD         28
         5         1
        Br   0.000000e+00   2.743624e+00   2.743624e+00  -1.575268e-04   1.722197e-20  -6.912969e-08
        Br   2.743624e+00   0.000000e+00   2.743624e+00   2.701638e-05   9.541644e-20  -6.912821e-08
        Br   2.743624e+00   2.743624e+00   0.000000e+00   2.702141e-05   3.102287e-20   4.030056e-07
        Cd   2.743624e+00   2.743624e+00   2.743624e+00   7.552042e-05  -7.724296e-20  -1.932062e-07
        Cs   0.000000e+00   0.000000e+00   0.000000e+00  -1.662080e-06  -1.289114e-20   4.252849e-09
PRIMCOORD         29
         5         1
        Br   0.000000e+00   2.743624e+00   2.743624e+00   4.030667e-07   4.798331e-20  -2.701731e-05
        Br   2.743624e+00   0.000000e+00   2.743624e+00  -6.912730e-08  -1.564609e-20  -2.701673e-05
        Br   2.743624e+00   2.743624e+00   0.000000e+00  -6.914017e-08   2.042361e-21   1.575029e-04
        Cd   2.743624e+00   2.743624e+00   2.743624e+00  -1.932355e-07   1.425661e-20  -7.550898e-05
        Cs   0.000000e+00   0.000000e+00   0.000000e+00   4.252793e-09   2.925276e-20   1.662101e-06
PRIMCOORD         30
         5         1
        Br   0.000000e+00   2.743624e+00   2.743624e+00  -6.482347e-20   2.680581e-06  -4.356685e-20
        Br   2.743624e+00   0.000000e+00   2.743624e+00   6.995804e-22  -1.412640e-04   5.258103e-20
        Br   2.743624e+00   2.743624e+00   0.000000e+00   1.877572e-20   2.680581e-06  -1.504673e-20
        Cd   2.743624e+00   2.743624e+00   2.743624e+00   3.692513e-20   8.025908e-05   4.747442e-21
        Cs   0.000000e+00   0.000000e+00   0.000000e+00  -1.899401e-20   1.284743e-05  -8.337317e-23
PRIMCOORD         31
         5         1
        Br   0.000000e+00   2.743624e+00   2.743624e+00   2.346238e-06   1.220713e-18   7.502925e-05
        Br   2.743624e+00   0.000000e+00   2.743624e+00   2.355761e-06   1.179791e-18   7.512669e-05
        Br   2.743624e+00   2.743624e+00   0.000000e+00   2.349183e-06   1.246314e-18   7.493519e-05
        Cd   2.743624e+00   2.743624e+00   2.743624e+00   2.347011e-06   1.154622e-18   7.495987e-05
        Cs   0.000000e+00   0.000000e+00   0.000000e+00   2.359913e-06   1.294610e-18   7.525909e-05
PRIMCOORD         32
         5         1
        Br   0.000000e+00   2.743624e+00   2.743624e+00   7.480267e-05   1.188638e-17  -2.353345e-06
        Br   2.743624e+00   0.000000e+00   2.743624e+00   7.510627e-05   1.139628e-17  -2.356402e-06
        Br   2.743624e+00   2.743624e+00   0.000000e+00   7.489655e-05   1.205973e-17  -2.350395e-06
        Cd   2.743624e+00   2.743624e+00   2.743624e+00   7.482730e-05   1.141569e-17  -2.351169e-06
        Cs   0.000000e+00   0.000000e+00   0.000000e+00   7.523863e-05   1.213236e-17  -2.360554e-06
PRIMCOORD         33
         5         1
        Br   0.000000e+00   2.743624e+00   2.743624e+00  -1.068595e-17   7.367422e-05  -7.677233e-19
        Br   2.743624e+00   0.000000e+00   2.743624e+00  -1.090658e-17   7.357905e-05  -9.650461e-19
        Br   2.743624e+00   2.743624e+00   0.000000e+00  -1.045408e-17   7.367422e-05  -8.859184e-19
        Cd   2.743624e+00   2.743624e+00   2.743624e+00  -1.082126e-17   7.237749e-05  -8.824754e-19
        Cs   0.000000e+00   0.000000e+00   0.000000e+00  -1.105364e-17   7.527944e-05  -8.698122e-19
PRIMCOORD         34
         5         1
        Br   0.000000e+00   2.743624e+00   2.743624e+00  -2.635471e-06   9.643716e-20  -3.226299e-05
        Br   2.743624e+00   0.000000e+00   2.743624e+00   1.400162e-06  -2.982416e-19  -3.265123e-05
        Br   2.743624e+00   2.743624e+00   0.000000e+00   1.381962e-06   9.680554e-20   6.152715e-05
        Cd   2.743624e+00   2.743624e+00   2.743624e+00  -4.517311e-06  -4.480493e-19   1.054602e-04
        Cs   0.000000e+00   0.000000e+00   0.000000e+00   3.738315e-06   4.664590e-19  -8.717604e-05
PRIMCOORD         35
         5         1
        Br   0.000000e+00   2.743624e+00   2.743624e+00   6.144877e-05  -4.753163e-20  -1.383725e-06
        Br   2.743624e+00   0.000000e+00   2.743624e+00  -3.264625e-05   9.787324e-19  -1.400376e-06
        Br   2.743624e+00   2.743624e+00   0.000000e+00  -3.222189e-05  -2.688349e-19   2.638832e-06
        Cd   2.743624e+00   2.743624e+00   2.743624e+00   1.053258e-04   1.274612e-18   4.523073e-06
        Cs   0.000000e+00   0.000000e+00   0.000000e+00  -8.716274e-05  -1.347242e-18  -3.738885e-06
PRIMCOORD         36
         5         1
        Br   0.000000e+00   2.743624e+00   2.743624e+00  -7.570787e-19  -1.807446e-05   9.655152e-20
        Br   2.743624e+00   0.000000e+00   2.743624e+00   7.697310e-19   6.438507e-05  -2.857374e-19
        Br   2.743624e+00   2.743624e+00   0.000000e+00   6.342613e-19  -1.807446e-05   2.972635e-19
        Cd   2.743624e+00   2.743624e+00   2.743624e+00  -1.439340e-18   9.864158e-05   4.741749e-19
        Cs   0.000000e+00   0.000000e+00   0.000000e+00   1.421499e-18  -9.744575e-05  -3.081803e-19
PRIMCOORD         37
         5         1
        Br   0.000000e+00   2.743624e+00   2.743624e+00  -4.541239e-10   1.273639e-16  -1.310582e-04
        Br   2.743624e+00   0.000000e+00   2.743624e+00  -1.571442e-06   1.637016e-19   1.306723e-04
        Br   2.743624e+00   2.743624e+00   0.000000e+00   1.576138e-06  -1.272071e-16   3.776107e-08
        Cd   2.743624e+00   2.743624e+00   2.743624e+00  -3.584812e-09   2.143778e-19   2.980824e-07
        Cs   0.000000e+00   0.000000e+00   0.000000e+00  -2.146974e-09  -1.153433e-19   1.785303e-07
PRIMCOORD         38
         5         1
        Br   0.000000e+00   2.743624e+00   2.743624e+00  -3.776239e-08   1.429676e-15   1.576083e-06
        Br   2.743624e+00   0.000000e+00   2.743624e+00  -1.306723e-04  -7.244954e-21  -1.571442e-06
        Br   2.743624e+00   2.743624e+00   0.000000e+00   1.310628e-04  -1.429751e-15  -4.541080e-10
        Cd   2.743624e+00   2.743624e+00   2.743624e+00  -2.980928e-07  -7.981238e-22  -3.584686e-09
        Cs   0.000000e+00   0.000000e+00   0.000000e+00  -1.785303e-07  -1.285204e-19  -2.146975e-09
PRIMCOORD         39
         5         1
        Br   0.000000e+00   2.743624e+00   2.743624e+00   3.740169e-19   1.309703e-04   1.101912e-16
        Br   2.743624e+00   0.000000e+00   2.743624e+00   1.432902e-15   7.711198e-21  -1.098604e-16
        Br   2.743624e+00   2.743624e+00   0.000000e+00  -1.450534e-15  -1.309703e-04  -2.836232e-20
        Cd   2.743624e+00   2.743624e+00   2.743624e+00   3.347150e-18   1.085537e-19  -2.421862e-19
        Cs   0.000000e+00   0.000000e+00   0.000000e+00   2.236886e-18  -9.103627e-20  -1.276286e-19
PRIMCOORD         40
         5         1
        Br   0.000000e+00   2.743624e+00   2.743624e+00   4.145035e-08   2.394524e-22  -9.798884e-05
        Br   2.743624e+00   0.000000e+00   2.743624e+00   6.609843e-07  -5.158653e-21  -9.901500e-05
        Br   2.743624e+00   2.743624e+00   0.000000e+00   6.539207e-07   3.897056e-20  -6.211260e-06
        Cd   2.743624e+00   2.743624e+00   2.743624e+00  -2.870903e-07  -1.141488e-20   4.301996e-05
        Cs   0.000000e+00   0.000000e+00   0.000000e+00  -5.723527e-07   2.624771e-20   8.573805e-05
PRIMCOORD         41
         5         1
        Br   0.000000e+00   2.743624e+00   2.743624e+00  -6.209154e-06  -5.757959e-20  -6.541425e-07
        Br   2.743624e+00   0.000000e+00   2.743624e+00  -9.901373e-05   6.304603e-20  -6.609928e-07
        Br   2.743624e+00   2.743624e+00   0.000000e+00  -9.795561e-05   3.655200e-19  -4.146441e-08
        Cd   2.743624e+00   2.743624e+00   2.743624e+00   4.300538e-05   7.503786e-20   2.871877e-07
        Cs   0.000000e+00   0.000000e+00   0.000000e+00   8.573694e-05   3.832899e-20   5.723601e-07
PRIMCOORD         42
         5         1
        Br   0.000000e+00   2.743624e+00   2.743624e+00   2.670653e-20   4.204488e-05   3.776824e-20
        Br   2.743624e+00   0.000000e+00   2.743624e+00   7.918138e-20  -1.288107e-05  -1.833010e-20
        Br   2.743624e+00   2.743624e+00   0.000000e+00   2.364860e-20   4.204488e-05   4.241489e-21
        Cd   2.743624e+00   2.743624e+00   2.743624e+00  -7.852942e-21  -1.536709e-05  -3.414573e-21
        Cs   0.000000e+00   0.000000e+00   0.000000e+00  -2.602084e-20  -2.426524e-05  -3.221923e-22
PRIMCOORD         43
         5         1
        Br   0.000000e+00   2.743624e+00   2.743624e+00  -1.574595e-04  -2.814487e-20  -1.228463e-07
        Br   2.743624e+00   0.000000e+00   2.743624e+00   2.696832e-05  -7.846321e-20  -1.228358e-07
        Br   2.743624e+00   2.743624e+00   0.000000e+00   2.700998e-05   3.706670e-20   7.161543e-07
        Cd   2.743624e+00   2.743624e+00   2.743624e+00   7.547522e-05   5.482180e-20  -3.432750e-07
        Cs   0.000000e+00   0.000000e+00   0.000000e+00  -1.659195e-06   2.185032e-21   7.557330e-09
PRIMCOORD         44
         5         1
        Br   0.000000e+00   2.743624e+00   2.743624e+00  -7.170141e-07  -5.638979e-21   2.697760e-05
        Br   2.743624e+00   0.000000e+00   2.743624e+00   1.228041e-07   2.489092e-20   2.697529e-05
        Br   2.743624e+00   2.743624e+00   0.000000e+00   1.229938e-07  -6.500580e-21  -1.572707e-04
        Cd   2.743624e+00   2.743624e+00   2.743624e+00   3.436871e-07   6.289323e-21   7.538472e-05
        Cs   0.000000e+00   0.000000e+00   0.000000e+00  -7.555379e-09  -3.369983e-20  -1.659624e-06
PRIMCOORD         45
         5         1
        Br   0.000000e+00   2.743624e+00   2.743624e+00  -8.060973e-20  -2.159065e-06   1.699474e-20
        Br   2.743624e+00   0.000000e+00   2.743624e+00   1.586940e-20   1.187801e-04  -2.008618e-20
        Br   2.743624e+00   2.743624e+00   0.000000e+00  -1.591932e-20  -2.159065e-06   1.138244e-20
        Cd   2.743624e+00   2.743624e+00   2.743624e+00   3.263180e-20  -6.472176e-05  -3.416948e-21
        Cs   0.000000e+00   0.000000e+00   0.000000e+00  -2.883515e-21  -1.080142e-05   8.718399e-23
PRIMCOORD         46
         5         1
        Br   0.000000e+00   2.743624e+00   2.743624e+00   6.676617e-06  -1.404644e-18   7.460048e-05
        Br   2.743624e+00   0.000000e+00   2.743624e+00   6.676795e-06  -1.381575e-18   7.481960e-05
        Br   2.743624e+00   2.743624e+00   0.000000e+00   6.695450e-06  -1.384297e-18   7.439064e-05
        Cd   2.743624e+00   2.743624e+00   2.743624e+00   6.681559e-06  -1.336289e-18   7.444570e-05
        Cs   0.000000e+00   0.000000e+00   0.000000e+00   6.703260e-06  -1.462225e-18   7.511617e-05
PRIMCOORD         47
         5         1
        Br   0.000000e+00   2.743624e+00   2.743624e+00  -7.468554e-05   7.222902e-18   6.669013e-06
        Br   2.743624e+00   0.000000e+00   2.743624e+00  -7.468753e-05   7.223804e-18   6.688602e-06
        Br   2.743624e+00   2.743624e+00   0.000000e+00  -7.489621e-05   7.157681e-18   6.650254e-06
        Cd   2.743624e+00   2.743624e+00   2.743624e+00  -7.474082e-05   6.962080e-18   6.655176e-06
        Cs   0.000000e+00   0.000000e+00   0.000000e+00  -7.498357e-05   7.440882e-18   6.715114e-06
PRIMCOORD         48
         5         1
        Br   0.000000e+00   2.743624e+00   2.743624e+00  -7.609439e-18  -7.455027e-05  -8.731777e-19
        Br   2.743624e+00   0.000000e+00   2.743624e+00  -7.280490e-18  -7.328371e-05  -7.016608e-19
        Br   2.743624e+00   2.743624e+00   0.000000e+00  -7.693716e-18  -7.455027e-05  -7.196319e-19
        Cd   2.743624e+00   2.743624e+00   2.743624e+00  -7.640638e-18  -7.163129e-05  -7.144986e-19
        Cs   0.000000e+00   0.000000e+00   0.000000e+00  -7.420825e-18  -7.712034e-05  -7.851173e-19
PRIMCOORD         49
         5         1
        Br   0.000000e+00   2.743624e+00   2.743624e+00  -5.043517e-06   2.121392e-20  -3.176780e-05
        Br   2.743624e+00   0.000000e+00   2.743624e+00   2.660992e-06   1.417992e-19  -3.263750e-05
        Br   2.743624e+00   2.743624e+00   0.000000e+00   2.614326e-06  -1.908901e-21   6.128594e-05
        Cd   2.743624e+00   2.743624e+00   2.743624e+00  -8.639080e-06   2.006362e-19   1.049772e-04
        Cs   0.000000e+00   0.000000e+00   0.000000e+00   7.089380e-06  -1.436502e-19  -8.695237e-05
PRIMCOORD         50
         5         1
        Br   0.000000e+00   2.743624e+00   2.743624e+00  -6.157044e-05   2.109159e-19   2.602246e-06
        Br   2.743624e+00   0.000000e+00   2.743624e+00   3.248497e-05  -8.200883e-19   2.673487e-06
        Br   2.743624e+00   2.743624e+00   0.000000e+00   3.191527e-05   2.897441e-19  -5.020212e-06
        Cd   2.743624e+00   2.743624e+00   2.743624e+00  -1.054645e-04  -1.209959e-18  -8.599161e-06
        Cs   0.000000e+00   0.000000e+00   0.000000e+00   8.654600e-05   1.306351e-18   7.122667e-06
PRIMCOORD         51
         5         1
        Br   0.000000e+00   2.743624e+00   2.743624e+00  -8.164452e-19  -1.611724e-05   1.992991e-19
        Br   2.743624e+00   0.000000e+00   2.743624e+00   5.944909e-19   6.404651e-05  -7.578411e-20
        Br   2.743624e+00   2.743624e+00   0.000000e+00   3.783180e-19  -1.611724e-05  -1.883762e-19
        Cd   2.743624e+00   2.743624e+00   2.743624e+00  -1.421628e-18   9.532716e-05  -3.235483e-19
        Cs   0.000000e+00   0.000000e+00   0.000000e+00   1.258016e-18  -9.485196e-05   2.476619e-19
PRIMCOORD         52
         5         1
        Br   0.000000e+00   2.743624e+00   2.743624e+00  -6.690038e-10   4.275882e-18  -1.311324e-04
        Br   2.743624e+00   0.000000e+00   2.743624e+00  -1.026561e-06   9.578448e-20   1.302638e-04
        Br   2.743624e+00   2.743624e+00   0.000000e+00   1.033286e-06  -4.143485e-18   8.490203e-08
        Cd   2.743624e+00   2.743624e+00   2.743624e+00  -5.273460e-09   1.573397e-19   6.692449e-07
        Cs   0.000000e+00   0.000000e+00   0.000000e+00  -3.164464e-09  -9.590989e-20   4.015497e-07
PRIMCOORD         53
         5         1
        Br   0.000000e+00   2.743624e+00   2.743624e+00   8.489212e-08  -8.687902e-16  -1.033406e-06
        Br   2.743624e+00   0.000000e+00   2.743624e+00   1.302637e-04   1.946366e-20   1.026562e-06
        Br   2.743624e+00   2.743624e+00   0.000000e+00  -1.311171e-04   8.689100e-16   6.690819e-10
        Cd   2.743624e+00   2.743624e+00   2.743624e+00   6.691668e-07  -1.251700e-20   5.274075e-09
        Cs   0.000000e+00   0.000000e+00   0.000000e+00   4.015494e-07   1.676294e-19   3.164466e-09
PRIMCOORD         54
         5         1
        Br   0.000000e+00   2.743624e+00   2.743624e+00  -5.543568e-19  -1.308984e-04   2.614255e-18
        Br   2.743624e+00   0.000000e+00   2.743624e+00  -8.627811e-16   1.052332e-20  -2.640925e-18
        Br   2.743624e+00   2.743624e+00   0.000000e+00   8.729619e-16   1.308984e-04   1.560982e-21
        Cd   2.743624e+00   2.743624e+00   2.743624e+00  -4.527791e-18  -3.377559e-21  -1.486351e-20
        Cs   0.000000e+00   0.000000e+00   0.000000e+00  -2.829450e-18   1.566940e-20  -4.183148e-20
PRIMCOORD         55
         5         1
        Br   0.000000e+00   2.743624e+00   2.743624e+00   1.379572e-07  -1.684979e-20  -9.725821e-05
        Br   2.743624e+00   0.000000e+00   2.743624e+00   2.268816e-06   2.148118e-21  -9.956590e-05