# Animation of a phonon mode
# K point :        0       0       0
# Mode index :    6
# Frequency (cm^-1) : 50.271

ANIMSTEPS 20
CRYSTAL
PRIMVEC
   1.129404e+01   0.000000e+00   0.000000e+00
   0.000000e+00   1.129404e+01   0.000000e+00
   0.000000e+00   0.000000e+00   1.129404e+01
PRIMCOORD          1
        40         1
        Br   1.220886e-17   2.823509e+00   2.823509e+00
        Br   2.823509e+00   3.682582e-18   2.823509e+00
        Br   2.823509e+00   2.823509e+00   0.000000e+00
        Ca   2.823509e+00   2.823509e+00   2.823509e+00
        Cs   0.000000e+00   0.000000e+00   3.057351e-18
        Br   1.220886e-17   2.823509e+00   8.470528e+00
        Br   2.823509e+00   3.682582e-18   8.470528e+00
        Br   2.823509e+00   2.823509e+00   5.647018e+00
        Ca   2.823509e+00   2.823509e+00   8.470528e+00
        Cs   0.000000e+00   0.000000e+00   5.647018e+00
        Br   1.220886e-17   8.470528e+00   2.823509e+00
        Br   2.823509e+00   5.647018e+00   2.823509e+00
        Br   2.823509e+00   8.470528e+00   0.000000e+00
        Ca   2.823509e+00   8.470528e+00   2.823509e+00
        Cs   0.000000e+00   5.647018e+00   3.057351e-18
        Br   1.220886e-17   8.470528e+00   8.470528e+00
        Br   2.823509e+00   5.647018e+00   8.470528e+00
        Br   2.823509e+00   8.470528e+00   5.647018e+00
        Ca   2.823509e+00   8.470528e+00   8.470528e+00
        Cs   0.000000e+00   5.647018e+00   5.647018e+00
        Br   5.647018e+00   2.823509e+00   2.823509e+00
        Br   8.470528e+00   3.682582e-18   2.823509e+00
        Br   8.470528e+00   2.823509e+00   0.000000e+00
        Ca   8.470528e+00   2.823509e+00   2.823509e+00
        Cs   5.647018e+00   0.000000e+00   3.057351e-18
        Br   5.647018e+00   2.823509e+00   8.470528e+00
        Br   8.470528e+00   3.682582e-18   8.470528e+00
        Br   8.470528e+00   2.823509e+00   5.647018e+00
        Ca   8.470528e+00   2.823509e+00   8.470528e+00
        Cs   5.647018e+00   0.000000e+00   5.647018e+00
        Br   5.647018e+00   8.470528e+00   2.823509e+00
        Br   8.470528e+00   5.647018e+00   2.823509e+00
        Br   8.470528e+00   8.470528e+00   0.000000e+00
        Ca   8.470528e+00   8.470528e+00   2.823509e+00
        Cs   5.647018e+00   5.647018e+00   3.057351e-18
        Br   5.647018e+00   8.470528e+00   8.470528e+00
        Br   8.470528e+00   5.647018e+00   8.470528e+00
        Br   8.470528e+00   8.470528e+00   5.647018e+00
        Ca   8.470528e+00   8.470528e+00   8.470528e+00
        Cs   5.647018e+00   5.647018e+00   5.647018e+00
PRIMCOORD          2
        40         1
        Br  -5.859800e-02   2.827416e+00   2.821075e+00
        Br   2.827012e+00  -1.767503e-02   2.879458e+00
        Br   2.820522e+00   2.767587e+00   1.785356e-02
        Ca   2.823509e+00   2.806287e+00   2.879708e+00
        Cs   1.679816e-16   5.691735e-02  -1.467416e-02
        Br  -5.859800e-02   2.827416e+00   8.468093e+00
        Br   2.827012e+00  -1.767503e-02   8.526476e+00
        Br   2.820522e+00   2.767587e+00   5.664872e+00
        Ca   2.823509e+00   2.806287e+00   8.526727e+00
        Cs   1.679816e-16   5.691735e-02   5.632344e+00
        Br  -5.859800e-02   8.474435e+00   2.821075e+00
        Br   2.827012e+00   5.629343e+00   2.879458e+00
        Br   2.820522e+00   8.414606e+00   1.785356e-02
        Ca   2.823509e+00   8.453306e+00   2.879708e+00
        Cs   1.679816e-16   5.703936e+00  -1.467416e-02
        Br  -5.859800e-02   8.474435e+00   8.468093e+00
        Br   2.827012e+00   5.629343e+00   8.526476e+00
        Br   2.820522e+00   8.414606e+00   5.664872e+00
        Ca   2.823509e+00   8.453306e+00   8.526727e+00
        Cs   1.679816e-16   5.703936e+00   5.632344e+00
        Br   5.588420e+00   2.827416e+00   2.821075e+00
        Br   8.474030e+00  -1.767503e-02   2.879458e+00
        Br   8.467541e+00   2.767587e+00   1.785356e-02
        Ca   8.470528e+00   2.806287e+00   2.879708e+00
        Cs   5.647018e+00   5.691735e-02  -1.467416e-02
        Br   5.588420e+00   2.827416e+00   8.468093e+00
        Br   8.474030e+00  -1.767503e-02   8.526476e+00
        Br   8.467541e+00   2.767587e+00   5.664872e+00
        Ca   8.470528e+00   2.806287e+00   8.526727e+00
        Cs   5.647018e+00   5.691735e-02   5.632344e+00
        Br   5.588420e+00   8.474435e+00   2.821075e+00
        Br   8.474030e+00   5.629343e+00   2.879458e+00
        Br   8.467541e+00   8.414606e+00   1.785356e-02
        Ca   8.470528e+00   8.453306e+00   2.879708e+00
        Cs   5.647018e+00   5.703936e+00  -1.467416e-02
        Br   5.588420e+00   8.474435e+00   8.468093e+00
        Br   8.474030e+00   5.629343e+00   8.526476e+00
        Br   8.467541e+00   8.414606e+00   5.664872e+00
        Ca   8.470528e+00   8.453306e+00   8.526727e+00
        Cs   5.647018e+00   5.703936e+00   5.632344e+00
PRIMCOORD          3
        40         1
        Br  -9.481355e-02   2.829831e+00   2.819570e+00
        Br   2.829177e+00  -2.859880e-02   2.914036e+00
        Br   2.818676e+00   2.733026e+00   2.888767e-02
        Ca   2.823509e+00   2.795643e+00   2.914441e+00
        Cs   2.717999e-16   9.209420e-02  -2.374328e-02
        Br  -9.481355e-02   2.829831e+00   8.466589e+00
        Br   2.829177e+00  -2.859880e-02   8.561054e+00
        Br   2.818676e+00   2.733026e+00   5.675906e+00
        Ca   2.823509e+00   2.795643e+00   8.561459e+00
        Cs   2.717999e-16   9.209420e-02   5.623275e+00
        Br  -9.481355e-02   8.476849e+00   2.819570e+00
        Br   2.829177e+00   5.618420e+00   2.914036e+00
        Br   2.818676e+00   8.380044e+00   2.888767e-02
        Ca   2.823509e+00   8.442662e+00   2.914441e+00
        Cs   2.717999e-16   5.739113e+00  -2.374328e-02
        Br  -9.481355e-02   8.476849e+00   8.466589e+00
        Br   2.829177e+00   5.618420e+00   8.561054e+00
        Br   2.818676e+00   8.380044e+00   5.675906e+00
        Ca   2.823509e+00   8.442662e+00   8.561459e+00
        Cs   2.717999e-16   5.739113e+00   5.623275e+00
        Br   5.552205e+00   2.829831e+00   2.819570e+00
        Br   8.476195e+00  -2.859880e-02   2.914036e+00
        Br   8.465695e+00   2.733026e+00   2.888767e-02
        Ca   8.470528e+00   2.795643e+00   2.914441e+00
        Cs   5.647018e+00   9.209420e-02  -2.374328e-02
        Br   5.552205e+00   2.829831e+00   8.466589e+00
        Br   8.476195e+00  -2.859880e-02   8.561054e+00
        Br   8.465695e+00   2.733026e+00   5.675906e+00
        Ca   8.470528e+00   2.795643e+00   8.561459e+00
        Cs   5.647018e+00   9.209420e-02   5.623275e+00
        Br   5.552205e+00   8.476849e+00   2.819570e+00
        Br   8.476195e+00   5.618420e+00   2.914036e+00
        Br   8.465695e+00   8.380044e+00   2.888767e-02
        Ca   8.470528e+00   8.442662e+00   2.914441e+00
        Cs   5.647018e+00   5.739113e+00  -2.374328e-02
        Br   5.552205e+00   8.476849e+00   8.466589e+00
        Br   8.476195e+00   5.618420e+00   8.561054e+00
        Br   8.465695e+00   8.380044e+00   5.675906e+00
        Ca   8.470528e+00   8.442662e+00   8.561459e+00
        Cs   5.647018e+00   5.739113e+00   5.623275e+00
PRIMCOORD          4
        40         1
        Br  -9.481355e-02   2.829831e+00   2.819570e+00
        Br   2.829177e+00  -2.859880e-02   2.914036e+00
        Br   2.818676e+00   2.733026e+00   2.888767e-02
        Ca   2.823509e+00   2.795643e+00   2.914441e+00
        Cs   2.717999e-16   9.209420e-02  -2.374328e-02
        Br  -9.481355e-02   2.829831e+00   8.466589e+00
        Br   2.829177e+00  -2.859880e-02   8.561054e+00
        Br   2.818676e+00   2.733026e+00   5.675906e+00
        Ca   2.823509e+00   2.795643e+00   8.561459e+00
        Cs   2.717999e-16   9.209420e-02   5.623275e+00
        Br  -9.481355e-02   8.476849e+00   2.819570e+00
        Br   2.829177e+00   5.618420e+00   2.914036e+00
        Br   2.818676e+00   8.380044e+00   2.888767e-02
        Ca   2.823509e+00   8.442662e+00   2.914441e+00
        Cs   2.717999e-16   5.739113e+00  -2.374328e-02
        Br  -9.481355e-02   8.476849e+00   8.466589e+00
        Br   2.829177e+00   5.618420e+00   8.561054e+00
        Br   2.818676e+00   8.380044e+00   5.675906e+00
        Ca   2.823509e+00   8.442662e+00   8.561459e+00
        Cs   2.717999e-16   5.739113e+00   5.623275e+00
        Br   5.552205e+00   2.829831e+00   2.819570e+00
        Br   8.476195e+00  -2.859880e-02   2.914036e+00
        Br   8.465695e+00   2.733026e+00   2.888767e-02
        Ca   8.470528e+00   2.795643e+00   2.914441e+00
        Cs   5.647018e+00   9.209420e-02  -2.374328e-02
        Br   5.552205e+00   2.829831e+00   8.466589e+00
        Br   8.476195e+00  -2.859880e-02   8.561054e+00
        Br   8.465695e+00   2.733026e+00   5.675906e+00
        Ca   8.470528e+00   2.795643e+00   8.561459e+00
        Cs   5.647018e+00   9.209420e-02   5.623275e+00
        Br   5.552205e+00   8.476849e+00   2.819570e+00
        Br   8.476195e+00   5.618420e+00   2.914036e+00
        Br   8.465695e+00   8.380044e+00   2.888767e-02
        Ca   8.470528e+00   8.442662e+00   2.914441e+00
        Cs   5.647018e+00   5.739113e+00  -2.374328e-02
        Br   5.552205e+00   8.476849e+00   8.466589e+00
        Br   8.476195e+00   5.618420e+00   8.561054e+00
        Br   8.465695e+00   8.380044e+00   5.675906e+00
        Ca   8.470528e+00   8.442662e+00   8.561459e+00
        Cs   5.647018e+00   5.739113e+00   5.623275e+00
PRIMCOORD          5
        40         1
        Br  -5.859800e-02   2.827416e+00   2.821075e+00
        Br   2.827012e+00  -1.767503e-02   2.879458e+00
        Br   2.820522e+00   2.767587e+00   1.785356e-02
        Ca   2.823509e+00   2.806287e+00   2.879708e+00
        Cs   1.679816e-16   5.691735e-02  -1.467416e-02
        Br  -5.859800e-02   2.827416e+00   8.468093e+00
        Br   2.827012e+00  -1.767503e-02   8.526476e+00
        Br   2.820522e+00   2.767587e+00   5.664872e+00
        Ca   2.823509e+00   2.806287e+00   8.526727e+00
        Cs   1.679816e-16   5.691735e-02   5.632344e+00
        Br  -5.859800e-02   8.474435e+00   2.821075e+00
        Br   2.827012e+00   5.629343e+00   2.879458e+00
        Br   2.820522e+00   8.414606e+00   1.785356e-02
        Ca   2.823509e+00   8.453306e+00   2.879708e+00
        Cs   1.679816e-16   5.703936e+00  -1.467416e-02
        Br  -5.859800e-02   8.474435e+00   8.468093e+00
        Br   2.827012e+00   5.629343e+00   8.526476e+00
        Br   2.820522e+00   8.414606e+00   5.664872e+00
        Ca   2.823509e+00   8.453306e+00   8.526727e+00
        Cs   1.679816e-16   5.703936e+00   5.632344e+00
        Br   5.588420e+00   2.827416e+00   2.821075e+00
        Br   8.474030e+00  -1.767503e-02   2.879458e+00
        Br   8.467541e+00   2.767587e+00   1.785356e-02
        Ca   8.470528e+00   2.806287e+00   2.879708e+00
        Cs   5.647018e+00   5.691735e-02  -1.467416e-02
        Br   5.588420e+00   2.827416e+00   8.468093e+00
        Br   8.474030e+00  -1.767503e-02   8.526476e+00
        Br   8.467541e+00   2.767587e+00   5.664872e+00
        Ca   8.470528e+00   2.806287e+00   8.526727e+00
        Cs   5.647018e+00   5.691735e-02   5.632344e+00
        Br   5.588420e+00   8.474435e+00   2.821075e+00
        Br   8.474030e+00   5.629343e+00   2.879458e+00
        Br   8.467541e+00   8.414606e+00   1.785356e-02
        Ca   8.470528e+00   8.453306e+00   2.879708e+00
        Cs   5.647018e+00   5.703936e+00  -1.467416e-02
        Br   5.588420e+00   8.474435e+00   8.468093e+00
        Br   8.474030e+00   5.629343e+00   8.526476e+00
        Br   8.467541e+00   8.414606e+00   5.664872e+00
        Ca   8.470528e+00   8.453306e+00   8.526727e+00
        Cs   5.647018e+00   5.703936e+00   5.632344e+00
PRIMCOORD          6
        40         1
        Br  -2.441771e-17   2.823509e+00   2.823509e+00
        Br   2.823509e+00  -7.365163e-18   2.823509e+00
        Br   2.823509e+00   2.823509e+00   3.719778e-18
        Ca   2.823509e+00   2.823509e+00   2.823509e+00
        Cs   3.499885e-32   1.185869e-17  -6.114702e-18
        Br  -2.441771e-17   2.823509e+00   8.470528e+00
        Br   2.823509e+00  -7.365163e-18   8.470528e+00
        Br   2.823509e+00   2.823509e+00   5.647018e+00
        Ca   2.823509e+00   2.823509e+00   8.470528e+00
        Cs   3.499885e-32   1.185869e-17   5.647018e+00
        Br  -2.441771e-17   8.470528e+00   2.823509e+00
        Br   2.823509e+00   5.647018e+00   2.823509e+00
        Br   2.823509e+00   8.470528e+00   3.719778e-18
        Ca   2.823509e+00   8.470528e+00   2.823509e+00
        Cs   3.499885e-32   5.647018e+00  -6.114702e-18
        Br  -2.441771e-17   8.470528e+00   8.470528e+00
        Br   2.823509e+00   5.647018e+00   8.470528e+00
        Br   2.823509e+00   8.470528e+00   5.647018e+00
        Ca   2.823509e+00   8.470528e+00   8.470528e+00
        Cs   3.499885e-32   5.647018e+00   5.647018e+00
        Br   5.647018e+00   2.823509e+00   2.823509e+00
        Br   8.470528e+00  -7.365163e-18   2.823509e+00
        Br   8.470528e+00   2.823509e+00   3.719778e-18
        Ca   8.470528e+00   2.823509e+00   2.823509e+00
        Cs   5.647018e+00   1.185869e-17  -6.114702e-18
        Br   5.647018e+00   2.823509e+00   8.470528e+00
        Br   8.470528e+00  -7.365163e-18   8.470528e+00
        Br   8.470528e+00   2.823509e+00   5.647018e+00
        Ca   8.470528e+00   2.823509e+00   8.470528e+00
        Cs   5.647018e+00   1.185869e-17   5.647018e+00
        Br   5.647018e+00   8.470528e+00   2.823509e+00
        Br   8.470528e+00   5.647018e+00   2.823509e+00
        Br   8.470528e+00   8.470528e+00   3.719778e-18
        Ca   8.470528e+00   8.470528e+00   2.823509e+00
        Cs   5.647018e+00   5.647018e+00  -6.114702e-18
        Br   5.647018e+00   8.470528e+00   8.470528e+00
        Br   8.470528e+00   5.647018e+00   8.470528e+00
        Br   8.470528e+00   8.470528e+00   5.647018e+00
        Ca   8.470528e+00   8.470528e+00   8.470528e+00
        Cs   5.647018e+00   5.647018e+00   5.647018e+00
PRIMCOORD          7
        40         1
        Br   5.859800e-02   2.819602e+00   2.825944e+00
        Br   2.820007e+00   1.767503e-02   2.767561e+00
        Br   2.826496e+00   2.879431e+00  -1.785356e-02
        Ca   2.823509e+00   2.840731e+00   2.767310e+00
        Cs  -1.679816e-16  -5.691735e-02   1.467416e-02
        Br   5.859800e-02   2.819602e+00   8.472962e+00
        Br   2.820007e+00   1.767503e-02   8.414579e+00
        Br   2.826496e+00   2.879431e+00   5.629165e+00
        Ca   2.823509e+00   2.840731e+00   8.414329e+00
        Cs  -1.679816e-16  -5.691735e-02   5.661693e+00
        Br   5.859800e-02   8.466621e+00   2.825944e+00
        Br   2.820007e+00   5.664693e+00   2.767561e+00
        Br   2.826496e+00   8.526449e+00  -1.785356e-02
        Ca   2.823509e+00   8.487750e+00   2.767310e+00
        Cs  -1.679816e-16   5.590101e+00   1.467416e-02
        Br   5.859800e-02   8.466621e+00   8.472962e+00
        Br   2.820007e+00   5.664693e+00   8.414579e+00
        Br   2.826496e+00   8.526449e+00   5.629165e+00
        Ca   2.823509e+00   8.487750e+00   8.414329e+00
        Cs  -1.679816e-16   5.590101e+00   5.661693e+00
        Br   5.705616e+00   2.819602e+00   2.825944e+00
        Br   8.467025e+00   1.767503e-02   2.767561e+00
        Br   8.473514e+00   2.879431e+00  -1.785356e-02
        Ca   8.470528e+00   2.840731e+00   2.767310e+00
        Cs   5.647018e+00  -5.691735e-02   1.467416e-02
        Br   5.705616e+00   2.819602e+00   8.472962e+00
        Br   8.467025e+00   1.767503e-02   8.414579e+00
        Br   8.473514e+00   2.879431e+00   5.629165e+00
        Ca   8.470528e+00   2.840731e+00   8.414329e+00
        Cs   5.647018e+00  -5.691735e-02   5.661693e+00
        Br   5.705616e+00   8.466621e+00   2.825944e+00
        Br   8.467025e+00   5.664693e+00   2.767561e+00
        Br   8.473514e+00   8.526449e+00  -1.785356e-02
        Ca   8.470528e+00   8.487750e+00   2.767310e+00
        Cs   5.647018e+00   5.590101e+00   1.467416e-02
        Br   5.705616e+00   8.466621e+00   8.472962e+00
        Br   8.467025e+00   5.664693e+00   8.414579e+00
        Br   8.473514e+00   8.526449e+00   5.629165e+00
        Ca   8.470528e+00   8.487750e+00   8.414329e+00
        Cs   5.647018e+00   5.590101e+00   5.661693e+00
PRIMCOORD          8
        40         1
        Br   9.481355e-02   2.817188e+00   2.827448e+00
        Br   2.817842e+00   2.859880e-02   2.732983e+00
        Br   2.828342e+00   2.913993e+00  -2.888767e-02
        Ca   2.823509e+00   2.851375e+00   2.732577e+00
        Cs  -2.717999e-16  -9.209420e-02   2.374328e-02
        Br   9.481355e-02   2.817188e+00   8.474466e+00
        Br   2.817842e+00   2.859880e-02   8.380001e+00
        Br   2.828342e+00   2.913993e+00   5.618131e+00
        Ca   2.823509e+00   2.851375e+00   8.379596e+00
        Cs  -2.717999e-16  -9.209420e-02   5.670762e+00
        Br   9.481355e-02   8.464206e+00   2.827448e+00
        Br   2.817842e+00   5.675617e+00   2.732983e+00
        Br   2.828342e+00   8.561011e+00  -2.888767e-02
        Ca   2.823509e+00   8.498393e+00   2.732577e+00
        Cs  -2.717999e-16   5.554924e+00   2.374328e-02
        Br   9.481355e-02   8.464206e+00   8.474466e+00
        Br   2.817842e+00   5.675617e+00   8.380001e+00
        Br   2.828342e+00   8.561011e+00   5.618131e+00
        Ca   2.823509e+00   8.498393e+00   8.379596e+00
        Cs  -2.717999e-16   5.554924e+00   5.670762e+00
        Br   5.741832e+00   2.817188e+00   2.827448e+00
        Br   8.464860e+00   2.859880e-02   2.732983e+00
        Br   8.475360e+00   2.913993e+00  -2.888767e-02
        Ca   8.470528e+00   2.851375e+00   2.732577e+00
        Cs   5.647018e+00  -9.209420e-02   2.374328e-02
        Br   5.741832e+00   2.817188e+00   8.474466e+00
        Br   8.464860e+00   2.859880e-02   8.380001e+00
        Br   8.475360e+00   2.913993e+00   5.618131e+00
        Ca   8.470528e+00   2.851375e+00   8.379596e+00
        Cs   5.647018e+00  -9.209420e-02   5.670762e+00
        Br   5.741832e+00   8.464206e+00   2.827448e+00
        Br   8.464860e+00   5.675617e+00   2.732983e+00
        Br   8.475360e+00   8.561011e+00  -2.888767e-02
        Ca   8.470528e+00   8.498393e+00   2.732577e+00
        Cs   5.647018e+00   5.554924e+00   2.374328e-02
        Br   5.741832e+00   8.464206e+00   8.474466e+00
        Br   8.464860e+00   5.675617e+00   8.380001e+00
        Br   8.475360e+00   8.561011e+00   5.618131e+00
        Ca   8.470528e+00   8.498393e+00   8.379596e+00
        Cs   5.647018e+00   5.554924e+00   5.670762e+00
PRIMCOORD          9
        40         1
        Br   9.481355e-02   2.817188e+00   2.827448e+00
        Br   2.817842e+00   2.859880e-02   2.732983e+00
        Br   2.828342e+00   2.913993e+00  -2.888767e-02
        Ca   2.823509e+00   2.851375e+00   2.732577e+00
        Cs  -2.717999e-16  -9.209420e-02   2.374328e-02
        Br   9.481355e-02   2.817188e+00   8.474466e+00
        Br   2.817842e+00   2.859880e-02   8.380001e+00
        Br   2.828342e+00   2.913993e+00   5.618131e+00
        Ca   2.823509e+00   2.851375e+00   8.379596e+00
        Cs  -2.717999e-16  -9.209420e-02   5.670762e+00
        Br   9.481355e-02   8.464206e+00   2.827448e+00
        Br   2.817842e+00   5.675617e+00   2.732983e+00
        Br   2.828342e+00   8.561011e+00  -2.888767e-02
        Ca   2.823509e+00   8.498393e+00   2.732577e+00
        Cs  -2.717999e-16   5.554924e+00   2.374328e-02
        Br   9.481355e-02   8.464206e+00   8.474466e+00
        Br   2.817842e+00   5.675617e+00   8.380001e+00
        Br   2.828342e+00   8.561011e+00   5.618131e+00
        Ca   2.823509e+00   8.498393e+00   8.379596e+00
        Cs  -2.717999e-16   5.554924e+00   5.670762e+00
        Br   5.741832e+00   2.817188e+00   2.827448e+00
        Br   8.464860e+00   2.859880e-02   2.732983e+00
        Br   8.475360e+00   2.913993e+00  -2.888767e-02
        Ca   8.470528e+00   2.851375e+00   2.732577e+00
        Cs   5.647018e+00  -9.209420e-02   2.374328e-02
        Br   5.741832e+00   2.817188e+00   8.474466e+00
        Br   8.464860e+00   2.859880e-02   8.380001e+00
        Br   8.475360e+00   2.913993e+00   5.618131e+00
        Ca   8.470528e+00   2.851375e+00   8.379596e+00
        Cs   5.647018e+00  -9.209420e-02   5.670762e+00
        Br   5.741832e+00   8.464206e+00   2.827448e+00
        Br   8.464860e+00   5.675617e+00   2.732983e+00
        Br   8.475360e+00   8.561011e+00  -2.888767e-02
        Ca   8.470528e+00   8.498393e+00   2.732577e+00
        Cs   5.647018e+00   5.554924e+00   2.374328e-02
        Br   5.741832e+00   8.464206e+00   8.474466e+00
        Br   8.464860e+00   5.675617e+00   8.380001e+00
        Br   8.475360e+00   8.561011e+00   5.618131e+00
        Ca   8.470528e+00   8.498393e+00   8.379596e+00
        Cs   5.647018e+00   5.554924e+00   5.670762e+00
PRIMCOORD         10
        40         1
        Br   5.859800e-02   2.819602e+00   2.825944e+00
        Br   2.820007e+00   1.767503e-02   2.767561e+00
        Br   2.826496e+00   2.879431e+00  -1.785356e-02
        Ca   2.823509e+00   2.840731e+00   2.767310e+00
        Cs  -1.679816e-16  -5.691735e-02   1.467416e-02
        Br   5.859800e-02   2.819602e+00   8.472962e+00
        Br   2.820007e+00   1.767503e-02   8.414579e+00
        Br   2.826496e+00   2.879431e+00   5.629165e+00
        Ca   2.823509e+00   2.840731e+00   8.414329e+00
        Cs  -1.679816e-16  -5.691735e-02   5.661693e+00
        Br   5.859800e-02   8.466621e+00   2.825944e+00
        Br   2.820007e+00   5.664693e+00   2.767561e+00
        Br   2.826496e+00   8.526449e+00  -1.785356e-02
        Ca   2.823509e+00   8.487750e+00   2.767310e+00
        Cs  -1.679816e-16   5.590101e+00   1.467416e-02
        Br   5.859800e-02   8.466621e+00   8.472962e+00
        Br   2.820007e+00   5.664693e+00   8.414579e+00
        Br   2.826496e+00   8.526449e+00   5.629165e+00
        Ca   2.823509e+00   8.487750e+00   8.414329e+00
        Cs  -1.679816e-16   5.590101e+00   5.661693e+00
        Br   5.705616e+00   2.819602e+00   2.825944e+00
        Br   8.467025e+00   1.767503e-02   2.767561e+00
        Br   8.473514e+00   2.879431e+00  -1.785356e-02
        Ca   8.470528e+00   2.840731e+00   2.767310e+00
        Cs   5.647018e+00  -5.691735e-02   1.467416e-02
        Br   5.705616e+00   2.819602e+00   8.472962e+00
        Br   8.467025e+00   1.767503e-02   8.414579e+00
        Br   8.473514e+00   2.879431e+00   5.629165e+00
        Ca   8.470528e+00   2.840731e+00   8.414329e+00
        Cs   5.647018e+00  -5.691735e-02   5.661693e+00
        Br   5.705616e+00   8.466621e+00   2.825944e+00
        Br   8.467025e+00   5.664693e+00   2.767561e+00
        Br   8.473514e+00   8.526449e+00  -1.785356e-02
        Ca   8.470528e+00   8.487750e+00   2.767310e+00
        Cs   5.647018e+00   5.590101e+00   1.467416e-02
        Br   5.705616e+00   8.466621e+00   8.472962e+00
        Br   8.467025e+00   5.664693e+00   8.414579e+00
        Br   8.473514e+00   8.526449e+00   5.629165e+00
        Ca   8.470528e+00   8.487750e+00   8.414329e+00
        Cs   5.647018e+00   5.590101e+00   5.661693e+00
PRIMCOORD         11
        40         1
        Br   3.662657e-17   2.823509e+00   2.823509e+00
        Br   2.823509e+00   1.104774e-17   2.823509e+00
        Br   2.823509e+00   2.823509e+00  -7.439557e-18
        Ca   2.823509e+00   2.823509e+00   2.823509e+00
        Cs  -6.999770e-32  -2.371738e-17   9.172053e-18
        Br   3.662657e-17   2.823509e+00   8.470528e+00
        Br   2.823509e+00   1.104774e-17   8.470528e+00
        Br   2.823509e+00   2.823509e+00   5.647018e+00
        Ca   2.823509e+00   2.823509e+00   8.470528e+00
        Cs  -6.999770e-32  -2.371738e-17   5.647018e+00
        Br   3.662657e-17   8.470528e+00   2.823509e+00
        Br   2.823509e+00   5.647018e+00   2.823509e+00
        Br   2.823509e+00   8.470528e+00  -7.439557e-18
        Ca   2.823509e+00   8.470528e+00   2.823509e+00
        Cs  -6.999770e-32   5.647018e+00   9.172053e-18
        Br   3.662657e-17   8.470528e+00   8.470528e+00
        Br   2.823509e+00   5.647018e+00   8.470528e+00
        Br   2.823509e+00   8.470528e+00   5.647018e+00
        Ca   2.823509e+00   8.470528e+00   8.470528e+00
        Cs  -6.999770e-32   5.647018e+00   5.647018e+00
        Br   5.647018e+00   2.823509e+00   2.823509e+00
        Br   8.470528e+00   1.104774e-17   2.823509e+00
        Br   8.470528e+00   2.823509e+00  -7.439557e-18
        Ca   8.470528e+00   2.823509e+00   2.823509e+00
        Cs   5.647018e+00  -2.371738e-17   9.172053e-18
        Br   5.647018e+00   2.823509e+00   8.470528e+00
        Br   8.470528e+00   1.104774e-17   8.470528e+00
        Br   8.470528e+00   2.823509e+00   5.647018e+00
        Ca   8.470528e+00   2.823509e+00   8.470528e+00
        Cs   5.647018e+00  -2.371738e-17   5.647018e+00
        Br   5.647018e+00   8.470528e+00   2.823509e+00
        Br   8.470528e+00   5.647018e+00   2.823509e+00
        Br   8.470528e+00   8.470528e+00  -7.439557e-18
        Ca   8.470528e+00   8.470528e+00   2.823509e+00
        Cs   5.647018e+00   5.647018e+00   9.172053e-18
        Br   5.647018e+00   8.470528e+00   8.470528e+00
        Br   8.470528e+00   5.647018e+00   8.470528e+00
        Br   8.470528e+00   8.470528e+00   5.647018e+00
        Ca   8.470528e+00   8.470528e+00   8.470528e+00
        Cs   5.647018e+00   5.647018e+00   5.647018e+00
PRIMCOORD         12
        40         1
        Br  -5.859800e-02   2.827416e+00   2.821075e+00
        Br   2.827012e+00  -1.767503e-02   2.879458e+00
        Br   2.820522e+00   2.767587e+00   1.785356e-02
        Ca   2.823509e+00   2.806287e+00   2.879708e+00
        Cs   1.679816e-16   5.691735e-02  -1.467416e-02
        Br  -5.859800e-02   2.827416e+00   8.468093e+00
        Br   2.827012e+00  -1.767503e-02   8.526476e+00
        Br   2.820522e+00   2.767587e+00   5.664872e+00
        Ca   2.823509e+00   2.806287e+00   8.526727e+00
        Cs   1.679816e-16   5.691735e-02   5.632344e+00
        Br  -5.859800e-02   8.474435e+00   2.821075e+00
        Br   2.827012e+00   5.629343e+00   2.879458e+00
        Br   2.820522e+00   8.414606e+00   1.785356e-02
        Ca   2.823509e+00   8.453306e+00   2.879708e+00
        Cs   1.679816e-16   5.703936e+00  -1.467416e-02
        Br  -5.859800e-02   8.474435e+00   8.468093e+00
        Br   2.827012e+00   5.629343e+00   8.526476e+00
        Br   2.820522e+00   8.414606e+00   5.664872e+00
        Ca   2.823509e+00   8.453306e+00   8.526727e+00
        Cs   1.679816e-16   5.703936e+00   5.632344e+00
        Br   5.588420e+00   2.827416e+00   2.821075e+00
        Br   8.474030e+00  -1.767503e-02   2.879458e+00
        Br   8.467541e+00   2.767587e+00   1.785356e-02
        Ca   8.470528e+00   2.806287e+00   2.879708e+00
        Cs   5.647018e+00   5.691735e-02  -1.467416e-02
        Br   5.588420e+00   2.827416e+00   8.468093e+00
        Br   8.474030e+00  -1.767503e-02   8.526476e+00
        Br   8.467541e+00   2.767587e+00   5.664872e+00
        Ca   8.470528e+00   2.806287e+00   8.526727e+00
        Cs   5.647018e+00   5.691735e-02   5.632344e+00
        Br   5.588420e+00   8.474435e+00   2.821075e+00
        Br   8.474030e+00   5.629343e+00   2.879458e+00
        Br   8.467541e+00   8.414606e+00   1.785356e-02
        Ca   8.470528e+00   8.453306e+00   2.879708e+00
        Cs   5.647018e+00   5.703936e+00  -1.467416e-02
        Br   5.588420e+00   8.474435e+00   8.468093e+00
        Br   8.474030e+00   5.629343e+00   8.526476e+00
        Br   8.467541e+00   8.414606e+00   5.664872e+00
        Ca   8.470528e+00   8.453306e+00   8.526727e+00
        Cs   5.647018e+00   5.703936e+00   5.632344e+00
PRIMCOORD         13
        40         1
        Br  -9.481355e-02   2.829831e+00   2.819570e+00
        Br   2.829177e+00  -2.859880e-02   2.914036e+00
        Br   2.818676e+00   2.733026e+00   2.888767e-02
        Ca   2.823509e+00   2.795643e+00   2.914441e+00
        Cs   2.717999e-16   9.209420e-02  -2.374328e-02
        Br  -9.481355e-02   2.829831e+00   8.466589e+00
        Br   2.829177e+00  -2.859880e-02   8.561054e+00
        Br   2.818676e+00   2.733026e+00   5.675906e+00
        Ca   2.823509e+00   2.795643e+00   8.561459e+00
        Cs   2.717999e-16   9.209420e-02   5.623275e+00
        Br  -9.481355e-02   8.476849e+00   2.819570e+00
        Br   2.829177e+00   5.618420e+00   2.914036e+00
        Br   2.818676e+00   8.380044e+00   2.888767e-02
        Ca   2.823509e+00   8.442662e+00   2.914441e+00
        Cs   2.717999e-16   5.739113e+00  -2.374328e-02
        Br  -9.481355e-02   8.476849e+00   8.466589e+00
        Br   2.829177e+00   5.618420e+00   8.561054e+00
        Br   2.818676e+00   8.380044e+00   5.675906e+00
        Ca   2.823509e+00   8.442662e+00   8.561459e+00
        Cs   2.717999e-16   5.739113e+00   5.623275e+00
        Br   5.552205e+00   2.829831e+00   2.819570e+00
        Br   8.476195e+00  -2.859880e-02   2.914036e+00
        Br   8.465695e+00   2.733026e+00   2.888767e-02
        Ca   8.470528e+00   2.795643e+00   2.914441e+00
        Cs   5.647018e+00   9.209420e-02  -2.374328e-02
        Br   5.552205e+00   2.829831e+00   8.466589e+00
        Br   8.476195e+00  -2.859880e-02   8.561054e+00
        Br   8.465695e+00   2.733026e+00   5.675906e+00
        Ca   8.470528e+00   2.795643e+00   8.561459e+00
        Cs   5.647018e+00   9.209420e-02   5.623275e+00
        Br   5.552205e+00   8.476849e+00   2.819570e+00
        Br   8.476195e+00   5.618420e+00   2.914036e+00
        Br   8.465695e+00   8.380044e+00   2.888767e-02
        Ca   8.470528e+00   8.442662e+00   2.914441e+00
        Cs   5.647018e+00   5.739113e+00  -2.374328e-02
        Br   5.552205e+00   8.476849e+00   8.466589e+00
        Br   8.476195e+00   5.618420e+00   8.561054e+00
        Br   8.465695e+00   8.380044e+00   5.675906e+00
        Ca   8.470528e+00   8.442662e+00   8.561459e+00
        Cs   5.647018e+00   5.739113e+00   5.623275e+00
PRIMCOORD         14
        40         1