ANIMSTEPS 3750
CRYSTAL
PRIMVEC
   5.647018e+00   0.000000e+00   0.000000e+00
   0.000000e+00   5.647018e+00   0.000000e+00
   0.000000e+00   0.000000e+00   5.647018e+00
PRIMCOORD          1
         5         1
        Br   0.000000e+00   2.823509e+00   2.823509e+00  -2.923568e-05  -7.383567e-06  -7.574291e-05
        Br   2.823509e+00   0.000000e+00   2.823509e+00  -2.923568e-05  -7.383567e-06  -7.574291e-05
        Br   2.823509e+00   2.823509e+00   0.000000e+00  -2.923568e-05  -7.383567e-06  -7.574291e-05
        Ca   2.823509e+00   2.823509e+00   2.823509e+00  -2.923568e-05  -7.383567e-06  -7.574291e-05
        Cs   0.000000e+00   0.000000e+00   0.000000e+00  -2.923568e-05  -7.383567e-06  -7.574291e-05
PRIMCOORD          2
         5         1
        Br   0.000000e+00   2.823509e+00   2.823509e+00   7.598159e-05   1.729400e-06  -2.949640e-05
        Br   2.823509e+00   0.000000e+00   2.823509e+00   7.598159e-05   1.729400e-06  -2.949640e-05
        Br   2.823509e+00   2.823509e+00   0.000000e+00   7.598159e-05   1.729400e-06  -2.949640e-05
        Ca   2.823509e+00   2.823509e+00   2.823509e+00   7.598159e-05   1.729400e-06  -2.949640e-05
        Cs   0.000000e+00   0.000000e+00   0.000000e+00   7.598159e-05   1.729400e-06  -2.949640e-05
PRIMCOORD          3
         5         1
        Br   0.000000e+00   2.823509e+00   2.823509e+00   4.278208e-06  -8.117095e-05   6.261375e-06
        Br   2.823509e+00   0.000000e+00   2.823509e+00   4.278208e-06  -8.117095e-05   6.261375e-06
        Br   2.823509e+00   2.823509e+00   0.000000e+00   4.278208e-06  -8.117095e-05   6.261375e-06
        Ca   2.823509e+00   2.823509e+00   2.823509e+00   4.278208e-06  -8.117095e-05   6.261375e-06
        Cs   0.000000e+00   0.000000e+00   0.000000e+00   4.278208e-06  -8.117095e-05   6.261375e-06
PRIMCOORD          4
         5         1
        Br   0.000000e+00   2.823509e+00   2.823509e+00  -2.353307e-19  -6.559046e-05  -1.121641e-04
        Br   2.823509e+00   0.000000e+00   2.823509e+00   1.675783e-05   9.946856e-20   1.121641e-04
        Br   2.823509e+00   2.823509e+00   0.000000e+00  -1.675783e-05   6.559046e-05   4.338535e-20
        Ca   2.823509e+00   2.823509e+00   2.823509e+00  -2.486241e-19   1.312456e-19   3.644912e-20
        Cs   0.000000e+00   0.000000e+00   0.000000e+00   2.856390e-19  -6.883892e-20  -4.587199e-19
PRIMCOORD          5
         5         1
        Br   0.000000e+00   2.823509e+00   2.823509e+00  -5.039229e-19   1.111755e-04  -6.741595e-05
        Br   2.823509e+00   0.000000e+00   2.823509e+00  -1.608800e-05  -6.376826e-20   6.741595e-05
        Br   2.823509e+00   2.823509e+00   0.000000e+00   1.608800e-05  -1.111755e-04  -7.671262e-20
        Ca   2.823509e+00   2.823509e+00   2.823509e+00  -4.909083e-19  -1.010413e-19  -5.793559e-20
        Cs   0.000000e+00   0.000000e+00   0.000000e+00   6.732581e-19   1.377556e-19   1.439682e-19
PRIMCOORD          6
         5         1
        Br   0.000000e+00   2.823509e+00   2.823509e+00  -1.980811e-19  -2.239701e-05  -6.166236e-06
        Br   2.823509e+00   0.000000e+00   2.823509e+00  -1.289344e-04   7.036253e-20   6.166236e-06
        Br   2.823509e+00   2.823509e+00   0.000000e+00   1.289344e-04   2.239701e-05  -2.907260e-20
        Ca   2.823509e+00   2.823509e+00   2.823509e+00  -1.619471e-19   7.743799e-20  -1.980443e-20
        Cs   0.000000e+00   0.000000e+00   0.000000e+00   3.806854e-19  -1.100542e-20   9.080028e-20
PRIMCOORD          7
         5         1
        Br   0.000000e+00   2.823509e+00   2.823509e+00   5.648119e-05   1.223408e-19  -2.187017e-05
        Br   2.823509e+00   0.000000e+00   2.823509e+00   4.775084e-05  -6.077319e-19  -2.187017e-05
        Br   2.823509e+00   2.823509e+00   0.000000e+00   4.775084e-05  -3.763104e-19  -2.586873e-05
        Ca   2.823509e+00   2.823509e+00   2.823509e+00   5.328786e-05  -7.129832e-19  -2.440616e-05
        Cs   0.000000e+00   0.000000e+00   0.000000e+00  -1.074389e-04   4.907835e-19   4.920769e-05
PRIMCOORD          8
         5         1
        Br   0.000000e+00   2.823509e+00   2.823509e+00   2.586873e-05   3.741049e-19   4.775084e-05
        Br   2.823509e+00   0.000000e+00   2.823509e+00   2.187017e-05  -3.824189e-19   4.775084e-05
        Br   2.823509e+00   2.823509e+00   0.000000e+00   2.187017e-05  -5.916809e-19   5.648119e-05
        Ca   2.823509e+00   2.823509e+00   2.823509e+00   2.440616e-05  -4.443807e-19   5.328786e-05
        Cs   0.000000e+00   0.000000e+00   0.000000e+00  -4.920769e-05   2.677723e-19  -1.074389e-04
PRIMCOORD          9
         5         1
        Br   0.000000e+00   2.823509e+00   2.823509e+00  -2.616629e-19  -2.012520e-05  -1.866180e-19
        Br   2.823509e+00   0.000000e+00   2.823509e+00  -4.633768e-19  -8.732201e-05  -1.074670e-19
        Br   2.823509e+00   2.823509e+00   0.000000e+00  -4.481015e-19  -2.012520e-05   5.512489e-20
        Ca   2.823509e+00   2.823509e+00   2.823509e+00  -2.607964e-19  -1.088437e-04   1.072077e-19
        Cs   0.000000e+00   0.000000e+00   0.000000e+00   7.166047e-19   1.095161e-04   6.870923e-20
PRIMCOORD         10
         5         1
        Br   0.000000e+00   2.823509e+00   2.823509e+00   1.829901e-06   1.509151e-19   8.782622e-05
        Br   2.823509e+00   0.000000e+00   2.823509e+00  -1.541226e-06  -1.676629e-19   8.782622e-05
        Br   2.823509e+00   2.823509e+00   0.000000e+00  -1.541226e-06   3.658055e-20  -1.042763e-04
        Ca   2.823509e+00   2.823509e+00   2.823509e+00   2.213028e-06  -1.721026e-19  -1.261086e-04
        Cs   0.000000e+00   0.000000e+00   0.000000e+00   8.569756e-08   1.092462e-19  -4.883445e-06
PRIMCOORD         11
         5         1
        Br   0.000000e+00   2.823509e+00   2.823509e+00  -1.042763e-04  -1.731075e-19   1.541226e-06
        Br   2.823509e+00   0.000000e+00   2.823509e+00   8.782622e-05  -1.006257e-19   1.541226e-06
        Br   2.823509e+00   2.823509e+00   0.000000e+00   8.782622e-05  -1.371996e-19  -1.829901e-06
        Ca   2.823509e+00   2.823509e+00   2.823509e+00  -1.261086e-04  -1.564569e-19  -2.213028e-06
        Cs   0.000000e+00   0.000000e+00   0.000000e+00  -4.883445e-06   9.247694e-20  -8.569756e-08
PRIMCOORD         12
         5         1
        Br   0.000000e+00   2.823509e+00   2.823509e+00   1.725524e-19  -1.001627e-04   7.104680e-20
        Br   2.823509e+00   0.000000e+00   2.823509e+00   1.353528e-20   9.339899e-05   1.038385e-19
        Br   2.823509e+00   2.823509e+00   0.000000e+00   7.174847e-20  -1.001627e-04  -9.773269e-20
        Ca   2.823509e+00   2.823509e+00   2.823509e+00   1.295304e-19   6.926300e-05  -1.147032e-19
        Cs   0.000000e+00   0.000000e+00   0.000000e+00  -6.258792e-20   4.339729e-05  -4.645356e-21
PRIMCOORD         13
         5         1
        Br   0.000000e+00   2.823509e+00   2.823509e+00   1.137744e-04   7.559826e-21   3.584991e-08
        Br   2.823509e+00   0.000000e+00   2.823509e+00  -6.574198e-06   1.310844e-20   3.584991e-08
        Br   2.823509e+00   2.823509e+00   0.000000e+00  -6.574198e-06  -2.089310e-20  -6.204258e-07
        Ca   2.823509e+00   2.823509e+00   2.823509e+00  -2.060291e-04   8.737126e-20   1.123502e-06
        Cs   0.000000e+00   0.000000e+00   0.000000e+00   1.631289e-06   5.623403e-21  -8.895618e-09
PRIMCOORD         14
         5         1
        Br   0.000000e+00   2.823509e+00   2.823509e+00  -6.204258e-07   5.228006e-22   6.574198e-06
        Br   2.823509e+00   0.000000e+00   2.823509e+00   3.584991e-08  -4.665667e-21   6.574198e-06
        Br   2.823509e+00   2.823509e+00   0.000000e+00   3.584991e-08  -3.067531e-22  -1.137744e-04
        Ca   2.823509e+00   2.823509e+00   2.823509e+00   1.123502e-06   9.278554e-21   2.060291e-04
        Cs   0.000000e+00   0.000000e+00   0.000000e+00  -8.895618e-09  -1.638146e-20  -1.631289e-06
PRIMCOORD         15
         5         1
        Br   0.000000e+00   2.823509e+00   2.823509e+00   4.132534e-20   8.937994e-06  -2.276391e-21
        Br   2.823509e+00   0.000000e+00   2.823509e+00   2.631323e-21   1.064552e-04  -3.275614e-21
        Br   2.823509e+00   2.823509e+00   0.000000e+00  -3.383035e-21   8.937994e-06  -1.358248e-21
        Ca   2.823509e+00   2.823509e+00   2.823509e+00  -4.546806e-20  -2.124817e-04   1.424230e-20
        Cs   0.000000e+00   0.000000e+00   0.000000e+00   2.418488e-21  -1.067424e-05  -2.150783e-22
PRIMCOORD         16
         5         1
        Br   0.000000e+00   2.823509e+00   2.823509e+00   4.868603e-06  -3.524691e-17  -8.135411e-05
        Br   2.823509e+00   0.000000e+00   2.823509e+00   4.863417e-06  -3.517220e-17  -8.136396e-05
        Br   2.823509e+00   2.823509e+00   0.000000e+00   4.870165e-06  -3.534722e-17  -8.132801e-05
        Ca   2.823509e+00   2.823509e+00   2.823509e+00   4.868597e-06  -3.518914e-17  -8.132792e-05
        Cs   0.000000e+00   0.000000e+00   0.000000e+00   4.864717e-06  -3.533570e-17  -8.138571e-05
PRIMCOORD         17
         5         1
        Br   0.000000e+00   2.823509e+00   2.823509e+00  -8.136072e-05   9.571241e-17  -4.868208e-06
        Br   2.823509e+00   0.000000e+00   2.823509e+00  -8.127405e-05   9.512246e-17  -4.868798e-06
        Br   2.823509e+00   2.823509e+00   0.000000e+00  -8.138682e-05   9.560422e-17  -4.866646e-06
        Ca   2.823509e+00   2.823509e+00   2.823509e+00  -8.136062e-05   9.548731e-17  -4.866640e-06
        Cs   0.000000e+00   0.000000e+00   0.000000e+00  -8.129577e-05   9.539178e-17  -4.870099e-06
PRIMCOORD         18
         5         1
        Br   0.000000e+00   2.823509e+00   2.823509e+00   9.755194e-17   8.154503e-05  -2.961826e-17
        Br   2.823509e+00   0.000000e+00   2.823509e+00   9.805432e-17   8.134211e-05  -2.933623e-17
        Br   2.823509e+00   2.823509e+00   0.000000e+00   9.771905e-17   8.154503e-05  -2.951384e-17
        Ca   2.823509e+00   2.823509e+00   2.823509e+00   9.763331e-17   8.133379e-05  -2.955940e-17
        Cs   0.000000e+00   0.000000e+00   0.000000e+00   9.811347e-17   8.162673e-05  -2.956046e-17
PRIMCOORD         19
         5         1
        Br   0.000000e+00   2.823509e+00   2.823509e+00  -1.196514e-17   1.309521e-04   3.842769e-15
        Br   2.823509e+00   0.000000e+00   2.823509e+00   1.028733e-14   5.067680e-19  -3.839064e-15
        Br   2.823509e+00   2.823509e+00   0.000000e+00  -1.029981e-14  -1.309521e-04   4.322013e-18
        Ca   2.823509e+00   2.823509e+00   2.823509e+00  -1.123224e-17   6.409314e-19   4.076791e-18
        Cs   0.000000e+00   0.000000e+00   0.000000e+00   2.277359e-17  -7.068019e-19  -8.035615e-18
PRIMCOORD         20
         5         1
        Br   0.000000e+00   2.823509e+00   2.823509e+00   3.114437e-09   4.051708e-15  -1.310165e-04
        Br   2.823509e+00   0.000000e+00   2.823509e+00  -2.702472e-06   2.100363e-19   1.308803e-04
        Br   2.823509e+00   2.823509e+00   0.000000e+00   2.705195e-06  -4.051808e-15  -1.508367e-07
        Ca   2.823509e+00   2.823509e+00   2.823509e+00   2.921590e-09   2.374042e-19  -1.414968e-07
        Cs   0.000000e+00   0.000000e+00   0.000000e+00  -5.920084e-09  -4.291147e-19   2.867087e-07
PRIMCOORD         21
         5         1
        Br   0.000000e+00   2.823509e+00   2.823509e+00  -1.508316e-07  -1.020731e-14  -2.705287e-06
        Br   2.823509e+00   0.000000e+00   2.823509e+00   1.308802e-04   2.702299e-19   2.702474e-06
        Br   2.823509e+00   2.823509e+00   0.000000e+00  -1.310121e-04   1.020741e-14  -3.114543e-09
        Ca   2.823509e+00   2.823509e+00   2.823509e+00  -1.414920e-07   3.467787e-19  -2.921689e-09
        Cs   0.000000e+00   0.000000e+00   0.000000e+00   2.867086e-07  -3.660457e-19   5.920088e-09
PRIMCOORD         22
         5         1
        Br   0.000000e+00   2.823509e+00   2.823509e+00   7.222150e-07   3.441252e-19   5.218912e-05
        Br   2.823509e+00   0.000000e+00   2.823509e+00   6.131517e-07  -6.868754e-20   5.283115e-05
        Br   2.823509e+00   2.823509e+00   0.000000e+00   6.070557e-07  -4.120332e-19   6.208947e-05
        Ca   2.823509e+00   2.823509e+00   2.823509e+00   6.814113e-07  -7.574289e-20   5.858154e-05
        Cs   0.000000e+00   0.000000e+00   0.000000e+00  -1.371332e-06   1.683263e-20  -1.181584e-04
PRIMCOORD         23
         5         1
        Br   0.000000e+00   2.823509e+00   2.823509e+00  -6.207746e-05  -2.980205e-19   6.071732e-07
        Br   2.823509e+00   0.000000e+00   2.823509e+00  -5.270300e-05   2.592537e-19   6.146426e-07
        Br   2.823509e+00   2.823509e+00   0.000000e+00  -5.217903e-05   1.934779e-19   7.223548e-07
        Ca   2.823509e+00   2.823509e+00   2.823509e+00  -5.857021e-05   3.444860e-19   6.815431e-07
        Cs   0.000000e+00   0.000000e+00   0.000000e+00   1.178718e-04  -3.305594e-19  -1.374666e-06
PRIMCOORD         24
         5         1
        Br   0.000000e+00   2.823509e+00   2.823509e+00   8.499219e-20   2.034274e-05   3.731075e-19
        Br   2.823509e+00   0.000000e+00   2.823509e+00  -2.394759e-19   8.728483e-05  -4.371844e-19
        Br   2.823509e+00   2.823509e+00   0.000000e+00   6.176230e-19   2.034274e-05   1.899882e-19
        Ca   2.823509e+00   2.823509e+00   2.823509e+00   1.678572e-19   1.086749e-04   1.660633e-19
        Cs   0.000000e+00   0.000000e+00   0.000000e+00  -3.494282e-19  -1.094384e-04  -2.441419e-20
PRIMCOORD         25
         5         1
        Br   0.000000e+00   2.823509e+00   2.823509e+00   2.029446e-06   8.360955e-20   8.779042e-05
        Br   2.823509e+00   0.000000e+00   2.823509e+00  -1.709686e-06   3.546179e-20   8.780133e-05
        Br   2.823509e+00   2.823509e+00   0.000000e+00  -1.709431e-06  -3.555676e-20  -1.042253e-04
        Ca   2.823509e+00   2.823509e+00   2.823509e+00   2.454246e-06   6.809103e-20  -1.260416e-04
        Cs   0.000000e+00   0.000000e+00   0.000000e+00   9.513056e-08  -1.516432e-19  -4.885451e-06
PRIMCOORD         26
         5         1
        Br   0.000000e+00   2.823509e+00   2.823509e+00  -1.042226e-04  -4.141349e-19   1.709475e-06
        Br   2.823509e+00   0.000000e+00   2.823509e+00   8.780130e-05   2.135334e-19   1.709687e-06
        Br   2.823509e+00   2.823509e+00   0.000000e+00   8.778818e-05  -3.612112e-19  -2.029498e-06
        Ca   2.823509e+00   2.823509e+00   2.823509e+00  -1.260383e-04   9.207767e-20  -2.454309e-06
        Cs   0.000000e+00   0.000000e+00   0.000000e+00  -4.885450e-06   1.201372e-19  -9.513059e-08
PRIMCOORD         27
         5         1
        Br   0.000000e+00   2.823509e+00   2.823509e+00   4.418566e-19  -1.000131e-04   3.165052e-20
        Br   2.823509e+00   0.000000e+00   2.823509e+00  -2.224010e-19   9.356485e-05  -1.529807e-20
        Br   2.823509e+00   2.823509e+00   0.000000e+00  -2.685424e-19  -1.000131e-04  -3.035856e-20
        Ca   2.823509e+00   2.823509e+00   2.823509e+00   4.810996e-19   6.938764e-05  -2.618277e-20
        Cs   0.000000e+00   0.000000e+00   0.000000e+00  -2.988678e-20   4.328451e-05  -2.268436e-21
PRIMCOORD         28
         5         1
        Br   0.000000e+00   2.823509e+00   2.823509e+00  -1.136770e-04  -5.499032e-20  -1.796853e-07
        Br   2.823509e+00   0.000000e+00   2.823509e+00   6.568475e-06  -9.018883e-20  -1.796891e-07
        Br   2.823509e+00   2.823509e+00   0.000000e+00   6.568484e-06  -6.116883e-20   3.109711e-06
        Ca   2.823509e+00   2.823509e+00   2.823509e+00   2.058547e-04   1.578123e-19  -5.631296e-06
        Cs   0.000000e+00   0.000000e+00   0.000000e+00  -1.629845e-06   4.639302e-20   4.458650e-08
PRIMCOORD         29
         5         1
        Br   0.000000e+00   2.823509e+00   2.823509e+00   3.109779e-06  -1.158628e-20  -6.568341e-06
        Br   2.823509e+00   0.000000e+00   2.823509e+00  -1.796890e-07  -4.958399e-21  -6.568477e-06
        Br   2.823509e+00   2.823509e+00   0.000000e+00  -1.796893e-07  -1.968082e-20   1.136745e-04
        Ca   2.823509e+00   2.823509e+00   2.823509e+00  -5.631418e-06  -3.299617e-20  -2.058502e-04
        Cs   0.000000e+00   0.000000e+00   0.000000e+00   4.458649e-08   7.505256e-21   1.629845e-06
PRIMCOORD         30
         5         1
        Br   0.000000e+00   2.823509e+00   2.823509e+00   4.311777e-20  -8.629951e-06  -1.786004e-20
        Br   2.823509e+00   0.000000e+00   2.823509e+00   4.477598e-21  -1.035889e-04   1.061751e-20
        Br   2.823509e+00   2.823509e+00   0.000000e+00   1.221247e-21  -8.629951e-06   3.523895e-21
        Ca   2.823509e+00   2.823509e+00   2.823509e+00  -2.902847e-19   2.051299e-04  -1.105424e-20
        Cs   0.000000e+00   0.000000e+00   0.000000e+00  -6.881523e-21   1.038580e-05   2.344534e-22
PRIMCOORD         31
         5         1
        Br   0.000000e+00   2.823509e+00   2.823509e+00  -2.275169e-06   8.410378e-18   8.139340e-05
        Br   2.823509e+00   0.000000e+00   2.823509e+00  -2.263629e-06   8.345193e-18   8.143296e-05
        Br   2.823509e+00   2.823509e+00   0.000000e+00  -2.278090e-06   8.504553e-18   8.128906e-05
        Ca   2.823509e+00   2.823509e+00   2.823509e+00  -2.275158e-06   8.339297e-18   8.128867e-05
        Cs   0.000000e+00   0.000000e+00   0.000000e+00  -2.266049e-06   8.537436e-18   8.152002e-05
PRIMCOORD         32
         5         1
        Br   0.000000e+00   2.823509e+00   2.823509e+00   8.138250e-05  -1.420608e-17   2.275474e-06
        Br   2.823509e+00   0.000000e+00   2.823509e+00   8.096969e-05  -1.410743e-17   2.276580e-06
        Br   2.823509e+00   2.823509e+00   0.000000e+00   8.148696e-05  -1.428730e-17   2.272557e-06
        Ca   2.823509e+00   2.823509e+00   2.823509e+00   8.138211e-05  -1.410563e-17   2.272546e-06
        Cs   0.000000e+00   0.000000e+00   0.000000e+00   8.105625e-05  -1.430980e-17   2.279014e-06
PRIMCOORD         33
         5         1
        Br   0.000000e+00   2.823509e+00   2.823509e+00  -1.428469e-17  -8.161630e-05   8.097388e-18
        Br   2.823509e+00   0.000000e+00   2.823509e+00  -1.442018e-17  -8.075064e-05   7.979548e-18
        Br   2.823509e+00   2.823509e+00   0.000000e+00  -1.451714e-17  -8.161630e-05   7.999003e-18
        Ca   2.823509e+00   2.823509e+00   2.823509e+00  -1.427414e-17  -8.077537e-05   7.970537e-18
        Cs   0.000000e+00   0.000000e+00   0.000000e+00  -1.453796e-17  -8.188321e-05   8.109011e-18
PRIMCOORD         34
         5         1
        Br   0.000000e+00   2.823509e+00   2.823509e+00   1.116776e-17   1.308501e-04   1.258609e-15
        Br   2.823509e+00   0.000000e+00   2.823509e+00  -2.437245e-15   2.125436e-19  -1.253534e-15
        Br   2.823509e+00   2.823509e+00   0.000000e+00   2.443328e-15  -1.308501e-04   5.707046e-18
        Ca   2.823509e+00   2.823509e+00   2.823509e+00   1.048660e-17   2.103861e-19   5.360757e-18
        Cs   0.000000e+00   0.000000e+00   0.000000e+00  -2.142106e-17   1.271592e-20  -1.071705e-17
PRIMCOORD         35
         5         1
        Br   0.000000e+00   2.823509e+00   2.823509e+00   3.554483e-08   1.110287e-15  -1.309194e-04
        Br   2.823509e+00   0.000000e+00   2.823509e+00  -7.656577e-06  -2.750527e-20   1.303693e-04
        Br   2.823509e+00   2.823509e+00   0.000000e+00   7.688512e-06  -1.110308e-15  -6.052546e-07
        Ca   2.823509e+00   2.823509e+00   2.823509e+00   3.334956e-08  -5.654596e-20  -5.678739e-07
        Cs   0.000000e+00   0.000000e+00   0.000000e+00  -6.764857e-08  -4.611640e-20   1.151859e-06
PRIMCOORD         36
         5         1
        Br   0.000000e+00   2.823509e+00   2.823509e+00   6.052253e-07  -2.514314e-15   7.688885e-06
        Br   2.823509e+00   0.000000e+00   2.823509e+00  -1.303693e-04  -1.225552e-19  -7.656579e-06
        Br   2.823509e+00   2.823509e+00   0.000000e+00   1.309131e-04   2.514272e-15   3.554655e-08
        Ca   2.823509e+00   2.823509e+00   2.823509e+00   5.678463e-07  -1.407907e-19   3.335118e-08
        Cs   0.000000e+00   0.000000e+00   0.000000e+00  -1.151859e-06   1.653135e-19  -6.764859e-08
PRIMCOORD         37
         5         1
        Br   0.000000e+00   2.823509e+00   2.823509e+00  -1.905880e-06   2.907975e-19   5.117673e-05
        Br   2.823509e+00   0.000000e+00   2.823509e+00  -1.654919e-06  -1.237743e-19   5.375721e-05
        Br   2.823509e+00   2.823509e+00   0.000000e+00  -1.573861e-06  -4.203294e-19   6.197289e-05
        Ca   2.823509e+00   2.823509e+00   2.823509e+00  -1.798430e-06  -1.480738e-19   5.847897e-05
        Cs   0.000000e+00   0.000000e+00   0.000000e+00   3.635431e-06   7.856530e-20  -1.180907e-04
PRIMCOORD         38
         5         1
        Br   0.000000e+00   2.823509e+00   2.823509e+00   6.190131e-05   2.557426e-19   1.575681e-06
        Br   2.823509e+00   0.000000e+00   2.823509e+00   5.375033e-05  -4.004599e-19   1.655131e-06
        Br   2.823509e+00   2.823509e+00   0.000000e+00   5.111761e-05  -1.671017e-19   1.908084e-06
        Ca   2.823509e+00   2.823509e+00   2.823509e+00   5.841142e-05  -4.630625e-19   1.800510e-06
        Cs   0.000000e+00   0.000000e+00   0.000000e+00  -1.180756e-04   5.681489e-19  -3.635897e-06
PRIMCOORD         39
         5         1
        Br   0.000000e+00   2.823509e+00   2.823509e+00   3.103859e-19   2.111583e-05   1.762556e-19
        Br   2.823509e+00   0.000000e+00   2.823509e+00   6.090297e-21   8.717401e-05   1.438496e-19
        Br   2.823509e+00   2.823509e+00   0.000000e+00   4.169039e-19   2.111583e-05   4.628514e-20
        Ca   2.823509e+00   2.823509e+00   2.823509e+00   3.966635e-19   1.088074e-04   5.511897e-22
        Cs   0.000000e+00   0.000000e+00   0.000000e+00  -5.703306e-19  -1.092156e-04  -1.129137e-19
PRIMCOORD         40
         5         1
        Br   0.000000e+00   2.823509e+00   2.823509e+00   9.282610e-07   1.153891e-19   8.770553e-05
        Br   2.823509e+00   0.000000e+00   2.823509e+00  -7.820604e-07  -1.201555e-19   8.774911e-05
        Br   2.823509e+00   2.823509e+00   0.000000e+00  -7.820778e-07   4.642200e-20  -1.040991e-04
        Ca   2.823509e+00   2.823509e+00   2.823509e+00   1.122418e-06  -1.169746e-19  -1.258728e-04
        Cs   0.000000e+00   0.000000e+00   0.000000e+00   4.360602e-08   5.508832e-20  -4.892703e-06
PRIMCOORD         41
         5         1
        Br   0.000000e+00   2.823509e+00   2.823509e+00  -1.041498e-04  -1.183201e-19   7.816975e-07
        Br   2.823509e+00   0.000000e+00   2.823509e+00   8.774624e-05   5.273780e-20   7.820859e-07
        Br   2.823509e+00   2.823509e+00   0.000000e+00   8.774820e-05  -1.683693e-19  -9.278097e-07
        Ca   2.823509e+00   2.823509e+00   2.823509e+00  -1.259340e-04   2.672245e-20  -1.121873e-06
        Cs   0.000000e+00   0.000000e+00   0.000000e+00  -4.892543e-06  -1.176895e-19  -4.360744e-08
PRIMCOORD         42
         5         1
        Br   0.000000e+00   2.823509e+00   2.823509e+00   7.378037e-20  -9.593197e-05   2.650101e-20
        Br   2.823509e+00   0.000000e+00   2.823509e+00  -2.673647e-20   9.184855e-05   9.161358e-20
        Br   2.823509e+00   2.823509e+00   0.000000e+00  -7.104261e-20  -9.593197e-05  -9.040995e-20
        Ca   2.823509e+00   2.823509e+00   2.823509e+00   1.812030e-19   6.721754e-05  -9.939460e-20
        Cs   0.000000e+00   0.000000e+00   0.000000e+00  -6.832891e-20   4.193323e-05  -1.342478e-21
PRIMCOORD         43
         5         1
        Br   0.000000e+00   2.823509e+00   2.823509e+00  -1.132326e-04   2.050996e-20  -4.025545e-08
        Br   2.823509e+00   0.000000e+00   2.823509e+00   6.557100e-06  -1.064605e-20  -4.025877e-08
        Br   2.823509e+00   2.823509e+00   0.000000e+00   6.542554e-06   3.200861e-20   6.967047e-07
        Ca   2.823509e+00   2.823509e+00   2.823509e+00   2.050560e-04  -1.030682e-19  -1.261682e-06
        Cs   0.000000e+00   0.000000e+00   0.000000e+00  -1.626951e-06   1.495060e-20   9.989030e-09
PRIMCOORD         44
         5         1
        Br   0.000000e+00   2.823509e+00   2.823509e+00  -6.948321e-07  -2.540390e-21   6.560187e-06
        Br   2.823509e+00   0.000000e+00   2.823509e+00   4.023651e-08  -8.620801e-21   6.560728e-06
        Br   2.823509e+00   2.823509e+00   0.000000e+00   4.014725e-08  -4.044106e-21  -1.135378e-04
        Ca   2.823509e+00   2.823509e+00   2.823509e+00   1.258291e-06   3.503521e-21   2.056087e-04
        Cs   0.000000e+00   0.000000e+00   0.000000e+00  -9.983506e-09  -1.804518e-20  -1.627852e-06
PRIMCOORD         45
         5         1
        Br   0.000000e+00   2.823509e+00   2.823509e+00  -3.766283e-20  -7.950659e-06  -3.629515e-20
        Br   2.823509e+00   0.000000e+00   2.823509e+00   1.541455e-20  -9.749647e-05   3.627297e-20
        Br   2.823509e+00   2.823509e+00   0.000000e+00   7.606143e-21  -7.950659e-06   2.322096e-21
        Ca   2.823509e+00   2.823509e+00   2.823509e+00  -6.018719e-20   1.889039e-04  -5.552226e-21
        Cs   0.000000e+00   0.000000e+00   0.000000e+00  -4.010294e-21   9.772026e-06   1.916729e-22
PRIMCOORD         46
         5         1
        Br   0.000000e+00   2.823509e+00   2.823509e+00  -7.775532e-05   1.083537e-17  -5.095075e-06
        Br   2.823509e+00   0.000000e+00   2.823509e+00  -7.961878e-05   1.146332e-17  -5.100679e-06
        Br   2.823509e+00   2.823509e+00   0.000000e+00  -7.797987e-05   1.077944e-17  -5.080404e-06
        Ca   2.823509e+00   2.823509e+00   2.823509e+00  -7.775447e-05   1.074110e-17  -5.080348e-06
        Cs   0.000000e+00   0.000000e+00   0.000000e+00  -7.981037e-05   1.161419e-17  -5.112953e-06
PRIMCOORD         47
         5         1
        Br   0.000000e+00   2.823509e+00   2.823509e+00  -4.882478e-06   4.632397e-18   8.114102e-05
        Br   2.823509e+00   0.000000e+00   2.823509e+00  -4.999489e-06   4.621984e-18   8.123027e-05
        Br   2.823509e+00   2.823509e+00   0.000000e+00  -4.896578e-06   4.721374e-18   8.090737e-05
        Ca   2.823509e+00   2.823509e+00   2.823509e+00  -4.882424e-06   4.550231e-18   8.090648e-05
        Cs   0.000000e+00   0.000000e+00   0.000000e+00  -5.011520e-06   4.820492e-18   8.142573e-05
PRIMCOORD         48
         5         1
        Br   0.000000e+00   2.823509e+00   2.823509e+00  -1.289592e-17  -8.150219e-05   4.019947e-18
        Br   2.823509e+00   0.000000e+00   2.823509e+00  -1.280429e-17  -8.007039e-05   3.952097e-18
        Br   2.823509e+00   2.823509e+00   0.000000e+00  -1.318021e-17  -8.150219e-05   3.945520e-18
        Ca   2.823509e+00   2.823509e+00   2.823509e+00  -1.287033e-17  -7.963042e-05   3.916458e-18
        Cs   0.000000e+00   0.000000e+00   0.000000e+00  -1.298931e-17  -8.260596e-05   4.054674e-18
PRIMCOORD         49
         5         1
        Br   0.000000e+00   2.823509e+00   2.823509e+00  -4.011450e-18   1.298024e-04   3.827500e-16
        Br   2.823509e+00   0.000000e+00   2.823509e+00   3.835649e-16  -1.632967e-19  -3.793631e-16
        Br   2.823509e+00   2.823509e+00   0.000000e+00  -3.989061e-16  -1.298024e-04   3.884680e-18
        Ca   2.823509e+00   2.823509e+00   2.823509e+00  -3.779329e-18  -2.191018e-19   3.664514e-18
        Cs   0.000000e+00   0.000000e+00   0.000000e+00   7.436785e-18   2.344600e-19  -7.283898e-18
PRIMCOORD         50
         5         1
        Br   0.000000e+00   2.823509e+00   2.823509e+00  -7.863652e-08  -3.989075e-16   1.310911e-04
        Br   2.823509e+00   0.000000e+00   2.823509e+00   7.438682e-06  -2.115372e-19  -1.298314e-04
        Br   2.823509e+00   2.823509e+00   0.000000e+00  -7.512445e-06   3.988080e-16   1.372196e-06
        Ca   2.823509e+00   2.823509e+00   2.823509e+00  -7.380072e-08  -2.887582e-19   1.287812e-06
        Cs   0.000000e+00   0.000000e+00   0.000000e+00   1.499258e-07   3.407557e-19  -2.616737e-06
PRIMCOORD         51
         5         1
        Br   0.000000e+00   2.823509e+00   2.823509e+00   1.372483e-06   3.443189e-16   7.510873e-06
        Br   2.823509e+00   0.000000e+00   2.823509e+00  -1.298311e-04  -1.186738e-19  -7.438700e-06
        Br   2.823509e+00   2.823509e+00   0.000000e+00   1.311185e-04  -3.444693e-16   7.862007e-08
        Ca   2.823509e+00   2.823509e+00   2.823509e+00   1.288081e-06  -1.747069e-19   7.378528e-08
        Cs   0.000000e+00   0.000000e+00   0.000000e+00  -2.616730e-06   2.665217e-19  -1.499261e-07
PRIMCOORD         52
         5         1
        Br   0.000000e+00   2.823509e+00   2.823509e+00  -6.076466e-05   2.772683e-19   4.164070e-06
        Br   2.823509e+00   0.000000e+00   2.823509e+00  -5.493117e-05   3.966604e-19   4.656601e-06
        Br   2.823509e+00   2.823509e+00   0.000000e+00  -4.866275e-05  -4.698911e-19   5.199630e-06
        Ca   2.823509e+00   2.823509e+00   2.823509e+00  -5.735104e-05   4.998079e-19   4.907526e-06
        Cs   0.000000e+00   0.000000e+00   0.000000e+00   1.171344e-04  -6.475879e-19  -9.929669e-06
PRIMCOORD         53
         5         1
        Br   0.000000e+00   2.823509e+00   2.823509e+00  -5.127190e-06  -2.817913e-19  -4.935029e-05
        Br   2.823509e+00   0.000000e+00   2.823509e+00  -4.634973e-06   1.517870e-19  -5.518751e-05
        Br   2.823509e+00   2.823509e+00   0.000000e+00  -4.106056e-06   3.801875e-19  -6.162319e-05
        Ca   2.823509e+00   2.823509e+00   2.823509e+00  -4.839155e-06   1.763072e-19  -5.816133e-05
        Cs   0.000000e+00   0.000000e+00   0.000000e+00   9.883548e-06  -1.106738e-19   1.176810e-04
PRIMCOORD         54
         5         1
        Br   0.000000e+00   2.823509e+00   2.823509e+00   2.701196e-19   2.198234e-05   5.636516e-19
        Br   2.823509e+00   0.000000e+00   2.823509e+00   1.368213e-19   8.681956e-05  -1.918934e-19
        Br   2.823509e+00   2.823509e+00   0.000000e+00   5.752108e-19   2.198234e-05  -6.269054e-22
        Ca   2.823509e+00   2.823509e+00   2.823509e+00   2.874227e-19   1.069363e-04  -6.668404e-20
        Cs   0.000000e+00   0.000000e+00   0.000000e+00  -5.454553e-19  -1.086630e-04  -9.173107e-20
PRIMCOORD         55
         5         1
        Br   0.000000e+00   2.823509e+00   2.823509e+00  -1.036134e-04  -3.603312e-19  -2.582319e-06
        Br   2.823509e+00   0.000000e+00   2.823509e+00   8.758955e-05   8.975264e-20  -2.585207e-06