natom:   40
displacements:
- atom:    1
  direction:
    [   1.0000000000000000,  1.0000000000000000,  0.0000000000000000 ]
  displacement:
    [   0.0070710678118655,  0.0070710678118655,  0.0000000000000000 ]
- atom:   25
  direction:
    [   1.0000000000000000,  0.0000000000000000,  0.0000000000000000 ]
  displacement:
    [   0.0100000000000000,  0.0000000000000000,  0.0000000000000000 ]
- atom:   33
  direction:
    [   1.0000000000000000,  0.0000000000000000,  0.0000000000000000 ]
  displacement:
    [   0.0100000000000000,  0.0000000000000000,  0.0000000000000000 ]
lattice:
- [    10.9744946143509310,     0.0000000000000000,     0.0000000000000000 ] # a
- [     0.0000000000000000,    10.9744946143509310,     0.0000000000000000 ] # b
- [     0.0000000000000000,     0.0000000000000000,    10.9744946143509310 ] # c
atoms:
- symbol: Br # 1
  position: [  0.0000000000000000,  0.2500000000000000,  0.2500000000000000 ]
  mass: 79.904000
- symbol: Br # 2
  position: [  0.5000000000000000,  0.2500000000000000,  0.2500000000000000 ]
  mass: 79.904000
- symbol: Br # 3
  position: [  0.0000000000000000,  0.7500000000000000,  0.2500000000000000 ]
  mass: 79.904000
- symbol: Br # 4
  position: [  0.5000000000000000,  0.7500000000000000,  0.2500000000000000 ]
  mass: 79.904000
- symbol: Br # 5
  position: [  0.0000000000000000,  0.2500000000000000,  0.7500000000000000 ]
  mass: 79.904000
- symbol: Br # 6
  position: [  0.5000000000000000,  0.2500000000000000,  0.7500000000000000 ]
  mass: 79.904000
- symbol: Br # 7
  position: [  0.0000000000000000,  0.7500000000000000,  0.7500000000000000 ]
  mass: 79.904000
- symbol: Br # 8
  position: [  0.5000000000000000,  0.7500000000000000,  0.7500000000000000 ]
  mass: 79.904000
- symbol: Br # 9
  position: [  0.2500000000000000,  0.0000000000000000,  0.2500000000000000 ]
  mass: 79.904000
- symbol: Br # 10
  position: [  0.7500000000000000,  0.0000000000000000,  0.2500000000000000 ]
  mass: 79.904000
- symbol: Br # 11
  position: [  0.2500000000000000,  0.5000000000000000,  0.2500000000000000 ]
  mass: 79.904000
- symbol: Br # 12
  position: [  0.7500000000000000,  0.5000000000000000,  0.2500000000000000 ]
  mass: 79.904000
- symbol: Br # 13
  position: [  0.2500000000000000,  0.0000000000000000,  0.7500000000000000 ]
  mass: 79.904000
- symbol: Br # 14
  position: [  0.7500000000000000,  0.0000000000000000,  0.7500000000000000 ]
  mass: 79.904000
- symbol: Br # 15
  position: [  0.2500000000000000,  0.5000000000000000,  0.7500000000000000 ]
  mass: 79.904000
- symbol: Br # 16
  position: [  0.7500000000000000,  0.5000000000000000,  0.7500000000000000 ]
  mass: 79.904000
- symbol: Br # 17
  position: [  0.2500000000000000,  0.2500000000000000,  0.0000000000000000 ]
  mass: 79.904000
- symbol: Br # 18
  position: [  0.7500000000000000,  0.2500000000000000,  0.0000000000000000 ]
  mass: 79.904000
- symbol: Br # 19
  position: [  0.2500000000000000,  0.7500000000000000,  0.0000000000000000 ]
  mass: 79.904000
- symbol: Br # 20
  position: [  0.7500000000000000,  0.7500000000000000,  0.0000000000000000 ]
  mass: 79.904000
- symbol: Br # 21
  position: [  0.2500000000000000,  0.2500000000000000,  0.5000000000000000 ]
  mass: 79.904000
- symbol: Br # 22
  position: [  0.7500000000000000,  0.2500000000000000,  0.5000000000000000 ]
  mass: 79.904000
- symbol: Br # 23
  position: [  0.2500000000000000,  0.7500000000000000,  0.5000000000000000 ]
  mass: 79.904000
- symbol: Br # 24
  position: [  0.7500000000000000,  0.7500000000000000,  0.5000000000000000 ]
  mass: 79.904000
- symbol: Cd # 25
  position: [  0.2500000000000000,  0.2500000000000000,  0.2500000000000000 ]
  mass: 112.411000
- symbol: Cd # 26
  position: [  0.7500000000000000,  0.2500000000000000,  0.2500000000000000 ]
  mass: 112.411000
- symbol: Cd # 27
  position: [  0.2500000000000000,  0.7500000000000000,  0.2500000000000000 ]
  mass: 112.411000
- symbol: Cd # 28
  position: [  0.7500000000000000,  0.7500000000000000,  0.2500000000000000 ]
  mass: 112.411000
- symbol: Cd # 29
  position: [  0.2500000000000000,  0.2500000000000000,  0.7500000000000000 ]
  mass: 112.411000
- symbol: Cd # 30
  position: [  0.7500000000000000,  0.2500000000000000,  0.7500000000000000 ]
  mass: 112.411000
- symbol: Cd # 31
  position: [  0.2500000000000000,  0.7500000000000000,  0.7500000000000000 ]
  mass: 112.411000
- symbol: Cd # 32
  position: [  0.7500000000000000,  0.7500000000000000,  0.7500000000000000 ]
  mass: 112.411000
- symbol: Cs # 33
  position: [  0.0000000000000000,  0.0000000000000000,  0.0000000000000000 ]
  mass: 132.905452
- symbol: Cs # 34
  position: [  0.5000000000000000,  0.0000000000000000,  0.0000000000000000 ]
  mass: 132.905452
- symbol: Cs # 35
  position: [  0.0000000000000000,  0.5000000000000000,  0.0000000000000000 ]
  mass: 132.905452
- symbol: Cs # 36
  position: [  0.5000000000000000,  0.5000000000000000,  0.0000000000000000 ]
  mass: 132.905452
- symbol: Cs # 37
  position: [  0.0000000000000000,  0.0000000000000000,  0.5000000000000000 ]
  mass: 132.905452
- symbol: Cs # 38
  position: [  0.5000000000000000,  0.0000000000000000,  0.5000000000000000 ]
  mass: 132.905452
- symbol: Cs # 39
  position: [  0.0000000000000000,  0.5000000000000000,  0.5000000000000000 ]
  mass: 132.905452
- symbol: Cs # 40
  position: [  0.5000000000000000,  0.5000000000000000,  0.5000000000000000 ]
  mass: 132.905452