   5   5   0   0
  0.3304407E+02  0.5487247E-09  0.5487247E-09  0.5487247E-09  0.5000000E-15
  1.000000000000000E-004
  CAR 
 Br3CaCs                                 
     15.54645804    -21.35106442  301     -0.04274520      1.00000000
    -21.351  0.0000E+00  0.0000E+00
    -21.228  0.0000E+00  0.0000E+00
    -21.105  0.0000E+00  0.0000E+00
    -20.982  0.0000E+00  0.0000E+00
    -20.859  0.0000E+00  0.0000E+00
    -20.736  0.0000E+00  0.0000E+00
    -20.613  0.0000E+00  0.0000E+00
    -20.490  0.0000E+00  0.0000E+00
    -20.367  0.0000E+00  0.0000E+00
    -20.244  0.0000E+00  0.0000E+00
    -20.121  0.0000E+00  0.0000E+00
    -19.998  0.0000E+00  0.0000E+00
    -19.875  0.0000E+00  0.0000E+00
    -19.752  0.0000E+00  0.0000E+00
    -19.629  0.1626E+02  0.2000E+01
    -19.506  0.0000E+00  0.2000E+01
    -19.383  0.0000E+00  0.2000E+01
    -19.260  0.0000E+00  0.2000E+01
    -19.137  0.0000E+00  0.2000E+01
    -19.014  0.0000E+00  0.2000E+01
    -18.891  0.0000E+00  0.2000E+01
    -18.768  0.0000E+00  0.2000E+01
    -18.645  0.0000E+00  0.2000E+01
    -18.522  0.0000E+00  0.2000E+01
    -18.399  0.0000E+00  0.2000E+01
    -18.276  0.0000E+00  0.2000E+01
    -18.153  0.0000E+00  0.2000E+01
    -18.030  0.0000E+00  0.2000E+01
    -17.907  0.0000E+00  0.2000E+01
    -17.784  0.0000E+00  0.2000E+01
    -17.661  0.0000E+00  0.2000E+01
    -17.538  0.0000E+00  0.2000E+01
    -17.415  0.0000E+00  0.2000E+01
    -17.292  0.0000E+00  0.2000E+01
    -17.169  0.0000E+00  0.2000E+01
    -17.046  0.0000E+00  0.2000E+01
    -16.923  0.0000E+00  0.2000E+01
    -16.800  0.0000E+00  0.2000E+01
    -16.677  0.0000E+00  0.2000E+01
    -16.554  0.0000E+00  0.2000E+01
    -16.431  0.0000E+00  0.2000E+01
    -16.308  0.0000E+00  0.2000E+01
    -16.185  0.0000E+00  0.2000E+01
    -16.062  0.0000E+00  0.2000E+01
    -15.939  0.0000E+00  0.2000E+01
    -15.816  0.0000E+00  0.2000E+01
    -15.693  0.0000E+00  0.2000E+01
    -15.570  0.0000E+00  0.2000E+01
    -15.447  0.0000E+00  0.2000E+01
    -15.324  0.0000E+00  0.2000E+01
    -15.201  0.0000E+00  0.2000E+01
    -15.078  0.0000E+00  0.2000E+01
    -14.955  0.0000E+00  0.2000E+01
    -14.833  0.0000E+00  0.2000E+01
    -14.710  0.0000E+00  0.2000E+01
    -14.587  0.0000E+00  0.2000E+01
    -14.464  0.0000E+00  0.2000E+01
    -14.341  0.0000E+00  0.2000E+01
    -14.218  0.0000E+00  0.2000E+01
    -14.095  0.0000E+00  0.2000E+01
    -13.972  0.0000E+00  0.2000E+01
    -13.849  0.0000E+00  0.2000E+01
    -13.726  0.3072E+00  0.2038E+01
    -13.603  0.3297E+01  0.2576E+01
    -13.480  0.4682E+01  0.3439E+01
    -13.357  0.1810E+01  0.3952E+01
    -13.234  0.2735E+02  0.7984E+01
    -13.111  0.0000E+00  0.8000E+01
    -12.988  0.0000E+00  0.8000E+01
    -12.865  0.0000E+00  0.8000E+01
    -12.742  0.0000E+00  0.8000E+01
    -12.619  0.0000E+00  0.8000E+01
    -12.496  0.0000E+00  0.8000E+01
    -12.373  0.0000E+00  0.8000E+01
    -12.250  0.0000E+00  0.8000E+01
    -12.127  0.0000E+00  0.8000E+01
    -12.004  0.0000E+00  0.8000E+01
    -11.881  0.0000E+00  0.8000E+01
    -11.758  0.0000E+00  0.8000E+01
    -11.635  0.0000E+00  0.8000E+01
    -11.512  0.0000E+00  0.8000E+01
    -11.389  0.0000E+00  0.8000E+01
    -11.266  0.0000E+00  0.8000E+01
    -11.143  0.0000E+00  0.8000E+01
    -11.020  0.0000E+00  0.8000E+01
    -10.897  0.0000E+00  0.8000E+01
    -10.774  0.0000E+00  0.8000E+01
    -10.651  0.0000E+00  0.8000E+01
    -10.528  0.0000E+00  0.8000E+01
    -10.405  0.0000E+00  0.8000E+01
    -10.282  0.0000E+00  0.8000E+01
    -10.159  0.0000E+00  0.8000E+01
    -10.036  0.0000E+00  0.8000E+01
     -9.913  0.0000E+00  0.8000E+01
     -9.790  0.0000E+00  0.8000E+01
     -9.667  0.0000E+00  0.8000E+01
     -9.544  0.0000E+00  0.8000E+01
     -9.421  0.0000E+00  0.8000E+01
     -9.298  0.0000E+00  0.8000E+01
     -9.175  0.0000E+00  0.8000E+01
     -9.052  0.0000E+00  0.8000E+01
     -8.929  0.0000E+00  0.8000E+01
     -8.806  0.0000E+00  0.8000E+01
     -8.683  0.0000E+00  0.8000E+01
     -8.560  0.0000E+00  0.8000E+01
     -8.437  0.0000E+00  0.8000E+01
     -8.314  0.0000E+00  0.8000E+01
     -8.191  0.0000E+00  0.8000E+01
     -8.068  0.0000E+00  0.8000E+01
     -7.945  0.0000E+00  0.8000E+01
     -7.822  0.0000E+00  0.8000E+01
     -7.699  0.0000E+00  0.8000E+01
     -7.576  0.3269E+01  0.8402E+01
     -7.453  0.5325E+01  0.9464E+01
     -7.330  0.3582E+01  0.1024E+02
     -7.207  0.2812E+02  0.1392E+02
     -7.084  0.2774E+01  0.1759E+02
     -6.961  0.2794E+01  0.1800E+02
     -6.838  0.0000E+00  0.1800E+02
     -6.715  0.0000E+00  0.1800E+02
     -6.592  0.2288E-02  0.1800E+02
     -6.469  0.4000E+02  0.2333E+02
     -6.346  0.0000E+00  0.2400E+02
     -6.223  0.0000E+00  0.2400E+02
     -6.100  0.0000E+00  0.2400E+02
     -5.977  0.0000E+00  0.2400E+02
     -5.854  0.0000E+00  0.2400E+02
     -5.731  0.0000E+00  0.2400E+02
     -5.608  0.0000E+00  0.2400E+02
     -5.485  0.0000E+00  0.2400E+02
     -5.362  0.0000E+00  0.2400E+02
     -5.239  0.5333E-01  0.2401E+02
     -5.116  0.9644E-01  0.2403E+02
     -4.993  0.2259E+00  0.2409E+02
     -4.870  0.2886E+00  0.2414E+02
     -4.747  0.4124E+00  0.2422E+02
     -4.624  0.2378E-01  0.2429E+02
     -4.501  0.7904E+00  0.2442E+02
     -4.378  0.6776E+00  0.2453E+02
     -4.255  0.7699E+00  0.2466E+02
     -4.132  0.8764E+00  0.2480E+02
     -4.009  0.1042E+01  0.2498E+02
     -3.886  0.1239E+01  0.2519E+02
     -3.763  0.5790E+00  0.2531E+02
     -3.640  0.5284E+00  0.2548E+02
     -3.517  0.5167E+00  0.2561E+02
     -3.394  0.8939E+00  0.2576E+02
     -3.271  0.3388E+00  0.2581E+02
     -3.148  0.5268E+00  0.2595E+02
     -3.025  0.1129E+00  0.2596E+02
     -2.902  0.1333E+01  0.2613E+02
     -2.779  0.1757E+01  0.2646E+02
     -2.656  0.1541E+01  0.2679E+02
     -2.533  0.1202E+01  0.2711E+02
     -2.410  0.1511E+01  0.2737E+02
     -2.287  0.8473E+00  0.2758E+02
     -2.164  0.1090E+01  0.2777E+02
     -2.041  0.1536E+01  0.2801E+02
     -1.918  0.3615E+01  0.2853E+02
     -1.795  0.4790E+01  0.2933E+02
     -1.672  0.3520E+01  0.3010E+02
     -1.549  0.6069E+01  0.3107E+02
     -1.426  0.4037E+01  0.3186E+02
     -1.303  0.5388E+01  0.3284E+02
     -1.180  0.4223E+01  0.3354E+02
     -1.057  0.4993E+01  0.3443E+02
     -0.934  0.7075E+01  0.3569E+02
     -0.811  0.5565E+01  0.3669E+02
     -0.688  0.7010E+01  0.3801E+02
     -0.565  0.7332E+01  0.3925E+02
     -0.442  0.6291E+01  0.4030E+02
     -0.319  0.5204E+01  0.4134E+02
     -0.196  0.4064E+01  0.4196E+02
     -0.073  0.0000E+00  0.4200E+02
      0.049  0.0000E+00  0.4200E+02
      0.172  0.0000E+00  0.4200E+02
      0.295  0.0000E+00  0.4200E+02
      0.418  0.0000E+00  0.4200E+02
      0.541  0.9388E-02  0.4200E+02
      0.664  0.0000E+00  0.4200E+02
      0.787  0.5646E-01  0.4201E+02
      0.910  0.6218E-01  0.4202E+02
      1.033  0.1090E-03  0.4202E+02
      1.156  0.0000E+00  0.4203E+02
      1.279  0.5646E-01  0.4204E+02
      1.402  0.2259E+00  0.4207E+02
      1.525  0.2259E+00  0.4209E+02
      1.648  0.1612E-05  0.4209E+02
      1.771  0.2210E+00  0.4213E+02
      1.894  0.5308E-01  0.4214E+02
      2.017  0.3164E+00  0.4218E+02
      2.140  0.5016E-12  0.4221E+02
      2.263  0.6743E+00  0.4229E+02
      2.386  0.5838E-10  0.4229E+02
      2.509  0.2259E+00  0.4232E+02
      2.632  0.3504E+00  0.4236E+02
      2.755  0.2363E+00  0.4242E+02
      2.878  0.6772E+00  0.4253E+02
      3.001  0.2055E+00  0.4256E+02
      3.124  0.1486E+00  0.4259E+02
      3.247  0.2272E+00  0.4268E+02
      3.370  0.2259E+00  0.4277E+02
      3.493  0.9041E+00  0.4288E+02
      3.616  0.7900E+00  0.4298E+02
      3.739  0.9501E+00  0.4313E+02
      3.862  0.1100E+00  0.4323E+02
      3.985  0.4753E+00  0.4329E+02
      4.108  0.9363E+00  0.4343E+02
      4.231  0.5642E+00  0.4355E+02
      4.354  0.2609E+00  0.4358E+02
      4.477  0.2051E+00  0.4367E+02
      4.600  0.1051E+01  0.4380E+02
      4.723  0.8312E-01  0.4382E+02
      4.846  0.5975E+00  0.4390E+02
      4.969  0.2886E+00  0.4401E+02
      5.092  0.8496E-01  0.4404E+02
      5.215  0.7037E+00  0.4414E+02
      5.338  0.7529E-01  0.4420E+02
      5.461  0.9322E+00  0.4435E+02
      5.584  0.8974E+00  0.4451E+02
      5.707  0.1622E+01  0.4475E+02
      5.830  0.1011E+01  0.4494E+02
      5.953  0.2286E+01  0.4529E+02
      6.076  0.1250E+01  0.4562E+02
      6.199  0.2722E+01  0.4619E+02
      6.322  0.4692E+01  0.4685E+02
      6.445  0.4954E+01  0.4773E+02
      6.568  0.4103E+01  0.4856E+02
      6.691  0.5904E+01  0.4937E+02
      6.814  0.3627E+01  0.5013E+02
      6.937  0.3401E+01  0.5072E+02
      7.060  0.3325E+01  0.5159E+02
      7.183  0.2103E+01  0.5206E+02
      7.306  0.4511E+01  0.5269E+02
      7.429  0.3577E+01  0.5338E+02
      7.552  0.6802E+01  0.5456E+02
      7.675  0.3443E+01  0.5536E+02
      7.798  0.2035E+01  0.5581E+02
      7.921  0.2150E+01  0.5618E+02
      8.044  0.1753E+01  0.5668E+02
      8.167  0.3843E+01  0.5745E+02
      8.290  0.5532E+01  0.5836E+02
      8.413  0.4619E+01  0.5935E+02
      8.536  0.5908E+01  0.6021E+02
      8.659  0.2347E+01  0.6072E+02
      8.782  0.3537E+01  0.6131E+02
      8.905  0.1457E+01  0.6166E+02
      9.028  0.2111E+01  0.6199E+02
      9.151  0.2681E+01  0.6235E+02
      9.274  0.1540E+01  0.6274E+02
      9.397  0.1735E+01  0.6303E+02
      9.520  0.2284E+01  0.6360E+02
      9.643  0.4362E+01  0.6431E+02
      9.766  0.2689E+01  0.6472E+02
      9.889  0.4995E+01  0.6568E+02
     10.012  0.6652E+01  0.6672E+02
     10.135  0.5207E+01  0.6791E+02
     10.258  0.3242E+01  0.6867E+02
     10.381  0.2867E+01  0.6929E+02
     10.504  0.2113E+01  0.6989E+02
     10.627  0.2854E+01  0.7038E+02
     10.750  0.1075E+01  0.7069E+02
     10.873  0.2728E+01  0.7113E+02
     10.996  0.2252E+01  0.7151E+02
     11.119  0.3530E+01  0.7205E+02
     11.242  0.1910E+01  0.7235E+02
     11.365  0.2302E+01  0.7273E+02
     11.488  0.1352E+01  0.7311E+02
     11.611  0.1522E+01  0.7347E+02
     11.734  0.1810E+01  0.7376E+02
     11.857  0.3122E+01  0.7428E+02
     11.980  0.3732E+01  0.7493E+02
     12.103  0.3434E+01  0.7560E+02
     12.226  0.4227E+01  0.7619E+02
     12.349  0.2352E+01  0.7663E+02
     12.472  0.2354E+01  0.7713E+02
     12.595  0.1762E+01  0.7740E+02
     12.718  0.1450E+01  0.7772E+02
     12.841  0.8190E+00  0.7791E+02
     12.964  0.9605E+00  0.7810E+02
     13.087  0.2496E+01  0.7850E+02
     13.210  0.1536E+01  0.7878E+02
     13.333  0.1206E+01  0.7906E+02
     13.456  0.1362E+01  0.7933E+02
     13.579  0.1738E+01  0.7984E+02
     13.702  0.3353E+00  0.7989E+02
     13.825  0.1130E+00  0.7990E+02
     13.948  0.2259E+00  0.8000E+02
     14.071  0.0000E+00  0.8000E+02
     14.194  0.0000E+00  0.8000E+02
     14.317  0.0000E+00  0.8000E+02
     14.440  0.0000E+00  0.8000E+02
     14.563  0.0000E+00  0.8000E+02
     14.686  0.0000E+00  0.8000E+02
     14.809  0.0000E+00  0.8000E+02
     14.931  0.0000E+00  0.8000E+02
     15.054  0.0000E+00  0.8000E+02
     15.177  0.0000E+00  0.8000E+02
     15.300  0.0000E+00  0.8000E+02
     15.423  0.0000E+00  0.8000E+02
     15.546  0.0000E+00  0.8000E+02
