    5    5    1    1
  0.3304407E+02  0.5487247E-09  0.5487247E-09  0.5487247E-09  0.5000000E-15
  1.000000000000000E-004
  CAR 
 Br3CaCs                                 
     42     84     40
 
  0.0000000E+00  0.0000000E+00  0.0000000E+00  0.5787037E-03
    1      -19.673904   1.000000
    2      -13.757855   1.000000
    3      -13.245468   1.000000
    4      -13.245468   1.000000
    5       -7.175097   1.000000
    6       -7.175097   1.000000
    7       -7.175097   1.000000
    8       -6.980765   1.000000
    9       -6.980765   1.000000
   10       -6.529390   1.000000
   11       -6.529390   1.000000
   12       -6.529390   1.000000
   13       -2.986481   1.000000
   14       -2.986481   1.000000
   15       -2.986481   1.000000
   16       -0.907922   1.000000
   17       -0.907922   1.000000
   18       -0.907922   1.000000
   19       -0.577019   1.000000
   20       -0.577019   1.000000
   21       -0.577019   1.000000
   22        0.521523   0.000000
   23        4.716370   0.000000
   24        5.315393   0.000000
   25        5.315393   0.000000
   26        6.332309   0.000000
   27        6.332309   0.000000
   28        6.332309   0.000000
   29        9.845962   0.000000
   30        9.845962   0.000000
   31        9.845962   0.000000
   32       11.136906   0.000000
   33       11.136906   0.000000
   34       11.136906   0.000000
   35       12.579567   0.000000
   36       12.579567   0.000000
   37       12.885064   0.000000
   38       13.230791   0.000000
   39       13.230791   0.000000
   40       13.230791   0.000000
 
  0.8333333E-01  0.0000000E+00  0.0000000E+00  0.3472222E-02
    1      -19.673621   1.000000
    2      -13.749623   1.000000
    3      -13.249097   1.000000
    4      -13.245163   1.000000
    5       -7.177604   1.000000
    6       -7.177604   1.000000
    7       -7.175063   1.000000
    8       -7.021709   1.000000
    9       -6.980739   1.000000
   10       -6.525688   1.000000
   11       -6.525688   1.000000
   12       -6.522249   1.000000
   13       -2.979628   1.000000
   14       -2.979628   1.000000
   15       -2.977259   1.000000
   16       -0.924648   1.000000
   17       -0.917794   1.000000
   18       -0.917794   1.000000
   19       -0.713721   1.000000
   20       -0.590927   1.000000
   21       -0.590927   1.000000
   22        0.738671   0.000000
   23        4.808858   0.000000
   24        5.374676   0.000000
   25        5.391025   0.000000
   26        6.357701   0.000000
   27        6.406804   0.000000
   28        6.406804   0.000000
   29        9.702868   0.000000
   30        9.850411   0.000000
   31        9.850411   0.000000
   32       10.855575   0.000000
   33       11.092188   0.000000
   34       11.092188   0.000000
   35       12.378344   0.000000
   36       12.584596   0.000000
   37       12.791118   0.000000
   38       13.086278   0.000000
   39       13.119411   0.000000
   40       13.119411   0.000000
 
  0.1666667E+00  0.0000000E+00  0.0000000E+00  0.3472222E-02
    1      -19.672845   1.000000
    2      -13.726410   1.000000
    3      -13.259588   1.000000
    4      -13.244324   1.000000
    5       -7.184376   1.000000
    6       -7.184376   1.000000
    7       -7.174976   1.000000
    8       -7.127855   1.000000
    9       -6.980676   1.000000
   10       -6.515627   1.000000
   11       -6.515627   1.000000
   12       -6.506372   1.000000
   13       -2.960859   1.000000
   14       -2.960859   1.000000
   15       -2.950048   1.000000
   16       -0.978131   1.000000
   17       -0.969357   1.000000
   18       -0.943224   1.000000
   19       -0.943224   1.000000
   20       -0.629946   1.000000
   21       -0.629946   1.000000
   22        1.239849   0.000000
   23        5.070854   0.000000
   24        5.549475   0.000000
   25        5.606600   0.000000
   26        6.432376   0.000000
   27        6.623649   0.000000
   28        6.623649   0.000000
   29        9.361458   0.000000
   30        9.865719   0.000000
   31        9.865719   0.000000
   32       10.126656   0.000000
   33       10.928449   0.000000
   34       10.928449   0.000000
   35       11.767700   0.000000
   36       12.058032   0.000000
   37       12.573391   0.000000
   38       12.857940   0.000000
   39       12.857940   0.000000
   40       13.594738   0.000000
 
  0.2500000E+00  0.0000000E+00  0.0000000E+00  0.3472222E-02
    1      -19.671784   1.000000
    2      -13.692771   1.000000
    3      -13.275540   1.000000
    4      -13.243175   1.000000
    5       -7.263537   1.000000
    6       -7.193413   1.000000
    7       -7.193413   1.000000
    8       -7.174863   1.000000
    9       -6.980582   1.000000
   10       -6.501998   1.000000
   11       -6.501998   1.000000
   12       -6.489431   1.000000
   13       -2.935148   1.000000
   14       -2.935148   1.000000
   15       -2.907132   1.000000
   16       -1.244945   1.000000
   17       -1.028298   1.000000
   18       -0.973664   1.000000
   19       -0.973664   1.000000
   20       -0.686428   1.000000
   21       -0.686428   1.000000
   22        1.883381   0.000000
   23        5.454841   0.000000
   24        5.832936   0.000000
   25        5.928000   0.000000
   26        6.550780   0.000000
   27        6.963550   0.000000
   28        6.963550   0.000000
   29        8.956471   0.000000
   30        9.176449   0.000000
   31        9.894367   0.000000
   32        9.894367   0.000000
   33       10.598534   0.000000
   34       10.598534   0.000000
   35       10.873947   0.000000
   36       11.419387   0.000000
   37       12.378668   0.000000
   38       12.582342   0.000000
   39       12.582342   0.000000
   40       13.246914   0.000000
 
  0.3333333E+00  0.0000000E+00  0.0000000E+00  0.3472222E-02
    1      -19.670723   1.000000
    2      -13.656111   1.000000
    3      -13.294131   1.000000
    4      -13.242034   1.000000
    5       -7.391751   1.000000
    6       -7.202211   1.000000
    7       -7.202211   1.000000
    8       -7.174740   1.000000
    9       -6.980476   1.000000
   10       -6.488476   1.000000
   11       -6.488476   1.000000
   12       -6.475274   1.000000
   13       -2.909397   1.000000
   14       -2.909397   1.000000
   15       -2.855235   1.000000
   16       -1.471192   1.000000
   17       -1.084995   1.000000
   18       -0.997423   1.000000
   19       -0.997423   1.000000
   20       -0.748381   1.000000
   21       -0.748381   1.000000
   22        2.587206   0.000000
   23        5.866339   0.000000
   24        6.222564   0.000000
   25        6.294469   0.000000
   26        6.698861   0.000000
   27        7.392907   0.000000
   28        7.392907   0.000000
   29        8.202240   0.000000
   30        8.574445   0.000000
   31        9.932687   0.000000
   32        9.932687   0.000000
   33        9.991700   0.000000
   34       10.124910   0.000000
   35       10.124910   0.000000
   36       10.825259   0.000000
   37       11.827911   0.000000
   38       12.364893   0.000000
   39       12.364893   0.000000
   40       13.103075   0.000000
 
  0.4166667E+00  0.0000000E+00  0.0000000E+00  0.3472222E-02
    1      -19.669946   1.000000
    2      -13.626537   1.000000
    3      -13.310217   1.000000
    4      -13.241191   1.000000
    5       -7.481982   1.000000
    6       -7.208528   1.000000
    7       -7.208528   1.000000
    8       -7.174647   1.000000
    9       -6.980400   1.000000
   10       -6.478640   1.000000
   11       -6.478640   1.000000
   12       -6.465906   1.000000
   13       -2.890547   1.000000
   14       -2.890547   1.000000
   15       -2.808882   1.000000
   16       -1.627419   1.000000
   17       -1.125181   1.000000
   18       -1.008318   1.000000
   19       -1.008318   1.000000
   20       -0.799475   1.000000
   21       -0.799475   1.000000
   22        3.220442   0.000000
   23        6.172485   0.000000
   24        6.607380   0.000000
   25        6.668879   0.000000
   26        6.841718   0.000000
   27        7.401128   0.000000
   28        7.842546   0.000000
   29        7.842546   0.000000
   30        8.282462   0.000000
   31        9.259935   0.000000
   32        9.621572   0.000000
   33        9.621572   0.000000
   34        9.968038   0.000000
   35        9.968038   0.000000
   36       10.372460   0.000000
   37       11.313411   0.000000
   38       12.222304   0.000000
   39       12.222304   0.000000
   40       13.131058   0.000000
 
  0.5000000E+00  0.0000000E+00  0.0000000E+00  0.1736111E-02
    1      -19.669662   1.000000
    2      -13.614902   1.000000
    3      -13.316849   1.000000
    4      -13.240881   1.000000
    5       -7.514327   1.000000
    6       -7.210787   1.000000
    7       -7.210787   1.000000
    8       -7.174603   1.000000
    9       -6.980369   1.000000
   10       -6.475050   1.000000
   11       -6.475050   1.000000
   12       -6.462622   1.000000
   13       -2.883656   1.000000
   14       -2.883656   1.000000
   15       -2.789434   1.000000
   16       -1.684368   1.000000
   17       -1.139638   1.000000
   18       -1.010163   1.000000
   19       -1.010163   1.000000
   20       -0.820156   1.000000
   21       -0.820156   1.000000
   22        3.507121   0.000000
   23        6.277950   0.000000
   24        6.735921   0.000000
   25        6.907335   0.000000
   26        6.908787   0.000000
   27        7.069604   0.000000
   28        8.089746   0.000000
   29        8.089746   0.000000
   30        8.165911   0.000000
   31        8.930121   0.000000
   32        9.352053   0.000000
   33        9.352053   0.000000
   34        9.982590   0.000000
   35        9.982590   0.000000
   36       10.197225   0.000000
   37       11.110762   0.000000
   38       12.171295   0.000000
   39       12.171295   0.000000
   40       13.153731   0.000000
 
  0.8333333E-01  0.8333333E-01  0.0000000E+00  0.6944444E-02
    1      -19.673340   1.000000
    2      -13.741333   1.000000
    3      -13.250681   1.000000
    4      -13.246830   1.000000
    5       -7.180040   1.000000
    6       -7.178201   1.000000
    7       -7.176851   1.000000
    8       -7.040685   1.000000
    9       -7.001512   1.000000
   10       -6.524826   1.000000
   11       -6.522169   1.000000
   12       -6.513854   1.000000
   13       -3.089644   1.000000
   14       -2.972233   1.000000
   15       -2.847975   1.000000
   16       -0.974835   1.000000
   17       -0.927789   1.000000
   18       -0.896093   1.000000
   19       -0.842236   1.000000
   20       -0.605204   1.000000
   21       -0.562002   1.000000
   22        0.909541   0.000000
   23        4.896552   0.000000
   24        5.441834   0.000000
   25        5.450627   0.000000
   26        6.430406   0.000000
   27        6.432709   0.000000
   28        6.485068   0.000000
   29        9.548619   0.000000
   30        9.834554   0.000000
   31        9.902552   0.000000
   32       10.666994   0.000000
   33       10.995107   0.000000
   34       11.039744   0.000000
   35       12.285195   0.000000
   36       12.461876   0.000000
   37       12.622074   0.000000
   38       12.808116   0.000000
   39       12.913110   0.000000
   40       13.392049   0.000000
 
  0.1666667E+00  0.8333333E-01  0.0000000E+00  0.1388889E-01
    1      -19.672576   1.000000
    2      -13.717999   1.000000
    3      -13.260242   1.000000
    4      -13.246741   1.000000
    5       -7.186611   1.000000
    6       -7.184357   1.000000
    7       -7.177120   1.000000
    8       -7.136628   1.000000
    9       -7.009093   1.000000
   10       -6.518804   1.000000
   11       -6.512600   1.000000
   12       -6.497877   1.000000
   13       -3.170354   1.000000
   14       -2.951926   1.000000
   15       -2.713305   1.000000
   16       -1.100413   1.000000
   17       -1.012719   1.000000
   18       -0.953589   1.000000
   19       -0.893833   1.000000
   20       -0.645285   1.000000
   21       -0.574207   1.000000
   22        1.350884   0.000000
   23        5.146326   0.000000
   24        5.612029   0.000000
   25        5.649925   0.000000
   26        6.504287   0.000000
   27        6.646521   0.000000
   28        6.709549   0.000000
   29        9.245199   0.000000
   30        9.769474   0.000000
   31        9.945701   0.000000
   32       10.046903   0.000000
   33       10.812344   0.000000
   34       10.871740   0.000000
   35       11.725247   0.000000
   36       11.965399   0.000000
   37       12.388184   0.000000
   38       12.648051   0.000000
   39       12.701737   0.000000
   40       13.856986   0.000000
 
  0.2500000E+00  0.8333333E-01  0.0000000E+00  0.1388889E-01
    1      -19.671530   1.000000
    2      -13.684136   1.000000
    3      -13.275912   1.000000
    4      -13.245670   1.000000
    5       -7.269076   1.000000
    6       -7.195341   1.000000
    7       -7.193151   1.000000
    8       -7.176917   1.000000
    9       -7.009734   1.000000
   10       -6.508672   1.000000
   11       -6.499626   1.000000
   12       -6.482423   1.000000
   13       -3.217997   1.000000
   14       -2.923977   1.000000
   15       -2.587713   1.000000
   16       -1.322078   1.000000
   17       -1.094602   1.000000
   18       -0.984585   1.000000
   19       -0.903474   1.000000
   20       -0.703340   1.000000
   21       -0.626057   1.000000
   22        1.957728   0.000000
   23        5.517159   0.000000
   24        5.882009   0.000000
   25        5.958627   0.000000
   26        6.619528   0.000000
   27        6.983199   0.000000
   28        7.050585   0.000000
   29        8.888079   0.000000
   30        9.077025   0.000000
   31        9.786480   0.000000
   32        9.977385   0.000000
   33       10.406020   0.000000
   34       10.553682   0.000000
   35       10.945716   0.000000
   36       11.407922   0.000000
   37       12.115756   0.000000
   38       12.486031   0.000000
   39       12.696187   0.000000
   40       13.133944   0.000000
 
  0.3333333E+00  0.8333333E-01  0.0000000E+00  0.1388889E-01
    1      -19.670484   1.000000
    2      -13.647170   1.000000
    3      -13.294390   1.000000
    4      -13.244519   1.000000
    5       -7.395465   1.000000
    6       -7.203914   1.000000
    7       -7.201753   1.000000
    8       -7.176679   1.000000
    9       -7.009562   1.000000
   10       -6.496407   1.000000
   11       -6.486742   1.000000
   12       -6.471851   1.000000
   13       -3.238614   1.000000
   14       -2.895812   1.000000
   15       -2.481704   1.000000
   16       -1.520168   1.000000
   17       -1.156834   1.000000
   18       -1.008861   1.000000
   19       -0.909816   1.000000
   20       -0.767093   1.000000
   21       -0.696328   1.000000
   22        2.641959   0.000000
   23        5.925274   0.000000
   24        6.247317   0.000000
   25        6.323921   0.000000
   26        6.763390   0.000000
   27        7.407871   0.000000
   28        7.454064   0.000000
   29        8.136939   0.000000
   30        8.542625   0.000000
   31        9.692718   0.000000
   32        9.761607   0.000000
   33       10.009872   0.000000
   34       10.099041   0.000000
   35       10.292327   0.000000
   36       10.923159   0.000000
   37       11.778632   0.000000
   38       12.309839   0.000000
   39       12.342821   0.000000
   40       13.057993   0.000000
 
  0.4166667E+00  0.8333333E-01  0.0000000E+00  0.1388889E-01
    1      -19.669718   1.000000
    2      -13.617249   1.000000
    3      -13.310522   1.000000
    4      -13.243660   1.000000
    5       -7.484750   1.000000
    6       -7.210073   1.000000
    7       -7.207935   1.000000
    8       -7.176506   1.000000
    9       -7.009329   1.000000
   10       -6.484927   1.000000
   11       -6.477361   1.000000
   12       -6.467647   1.000000
   13       -3.243408   1.000000
   14       -2.875076   1.000000
   15       -2.406531   1.000000
   16       -1.658831   1.000000
   17       -1.197488   1.000000
   18       -1.019908   1.000000
   19       -0.901719   1.000000
   20       -0.819854   1.000000
   21       -0.765199   1.000000
   22        3.267774   0.000000
   23        6.237774   0.000000
   24        6.621980   0.000000
   25        6.697206   0.000000
   26        6.901889   0.000000
   27        7.315646   0.000000
   28        7.850800   0.000000
   29        7.870386   0.000000
   30        8.274063   0.000000
   31        9.076835   0.000000
   32        9.603617   0.000000
   33        9.609781   0.000000
   34        9.788110   0.000000
   35       10.041524   0.000000
   36       10.617844   0.000000
   37       11.389256   0.000000
   38       12.034429   0.000000
   39       12.189866   0.000000
   40       13.268784   0.000000
 
  0.5000000E+00  0.8333333E-01  0.0000000E+00  0.6944444E-02
    1      -19.669437   1.000000
    2      -13.605452   1.000000
    3      -13.317220   1.000000
    4      -13.243347   1.000000
    5       -7.516822   1.000000
    6       -7.212310   1.000000
    7       -7.210167   1.000000
    8       -7.176445   1.000000
    9       -7.009237   1.000000
   10       -6.479283   1.000000
   11       -6.473936   1.000000
   12       -6.467706   1.000000
   13       -3.243435   1.000000
   14       -2.867468   1.000000
   15       -2.378071   1.000000
   16       -1.710003   1.000000
   17       -1.211587   1.000000
   18       -1.021659   1.000000
   19       -0.889158   1.000000
   20       -0.841328   1.000000
   21       -0.800705   1.000000
   22        3.554106   0.000000
   23        6.348334   0.000000
   24        6.763046   0.000000
   25        6.926443   0.000000
   26        6.965406   0.000000
   27        6.989039   0.000000
   28        8.051113   0.000000
   29        8.087167   0.000000
   30        8.172007   0.000000
   31        8.759949   0.000000
   32        9.347824   0.000000
   33        9.542250   0.000000
   34        9.560389   0.000000
   35       10.054039   0.000000
   36       10.524532   0.000000
   37       11.206692   0.000000
   38       11.946391   0.000000
   39       12.145944   0.000000
   40       13.378235   0.000000
 
  0.1666667E+00  0.1666667E+00  0.0000000E+00  0.6944444E-02
    1      -19.671841   1.000000
    2      -13.694277   1.000000
    3      -13.264894   1.000000
    4      -13.251103   1.000000
    5       -7.192647   1.000000
    6       -7.185577   1.000000
    7       -7.184919   1.000000
    8       -7.181650   1.000000
    9       -7.058781   1.000000
   10       -6.520121   1.000000
   11       -6.504355   1.000000
   12       -6.484505   1.000000
   13       -3.338403   1.000000
   14       -2.927246   1.000000
   15       -2.471107   1.000000
   16       -1.292719   1.000000
   17       -1.083537   1.000000
   18       -0.980525   1.000000
   19       -0.863316   1.000000
   20       -0.688362   1.000000
   21       -0.511876   1.000000
   22        1.677981   0.000000
   23        5.363233   0.000000
   24        5.773318   0.000000
   25        5.807638   0.000000
   26        6.710190   0.000000
   27        6.716824   0.000000
   28        6.945235   0.000000
   29        9.006065   0.000000
   30        9.589579   0.000000
   31        9.604500   0.000000
   32       10.072429   0.000000
   33       10.527062   0.000000
   34       10.704043   0.000000
   35       11.575002   0.000000
   36       11.593793   0.000000
   37       12.046819   0.000000
   38       12.422629   0.000000
   39       12.463225   0.000000
   40       13.802398   0.000000
 
  0.2500000E+00  0.1666667E+00  0.0000000E+00  0.1388889E-01
    1      -19.670836   1.000000
    2      -13.659732   1.000000
    3      -13.277785   1.000000
    4      -13.252301   1.000000
    5       -7.292243   1.000000
    6       -7.200697   1.000000
    7       -7.192558   1.000000
    8       -7.182353   1.000000
    9       -7.078984   1.000000
   10       -6.517147   1.000000
   11       -6.493146   1.000000
   12       -6.474615   1.000000
   13       -3.453883   1.000000
   14       -2.892867   1.000000
   15       -2.254143   1.000000
   16       -1.481430   1.000000
   17       -1.154016   1.000000
   18       -1.013314   1.000000
   19       -0.845722   1.000000
   20       -0.750775   1.000000
   21       -0.508760   1.000000
   22        2.189307   0.000000
   23        5.693624   0.000000
   24        5.999684   0.000000
   25        6.101018   0.000000
   26        6.819140   0.000000
   27        7.040588   0.000000
   28        7.273637   0.000000
   29        8.732797   0.000000
   30        8.826765   0.000000
   31        9.401227   0.000000
   32       10.023877   0.000000
   33       10.163057   0.000000
   34       10.417176   0.000000
   35       11.000646   0.000000
   36       11.331528   0.000000
   37       11.692477   0.000000
   38       12.278822   0.000000
   39       12.604611   0.000000
   40       13.127699   0.000000
 
  0.3333333E+00  0.1666667E+00  0.0000000E+00  0.1388889E-01
    1      -19.669831   1.000000
    2      -13.621816   1.000000
    3      -13.295322   1.000000
    4      -13.251857   1.000000
    5       -7.409186   1.000000
    6       -7.208597   1.000000
    7       -7.200517   1.000000
    8       -7.181928   1.000000
    9       -7.084246   1.000000
   10       -6.509695   1.000000
   11       -6.481990   1.000000
   12       -6.471599   1.000000
   13       -3.522912   1.000000
   14       -2.857692   1.000000
   15       -2.081814   1.000000
   16       -1.637414   1.000000
   17       -1.210396   1.000000
   18       -1.039424   1.000000
   19       -0.825569   1.000000
   20       -0.819487   1.000000
   21       -0.558167   1.000000
   22        2.814283   0.000000
   23        6.085089   0.000000
   24        6.297800   0.000000
   25        6.469545   0.000000
   26        6.950324   0.000000
   27        7.451162   0.000000
   28        7.582455   0.000000
   29        7.973141   0.000000
   30        8.466068   0.000000
   31        9.184845   0.000000
   32        9.418408   0.000000
   33       10.009733   0.000000
   34       10.219549   0.000000
   35       10.424657   0.000000
   36       10.993214   0.000000
   37       11.487956   0.000000
   38       12.162695   0.000000
   39       12.416658   0.000000
   40       13.001960   0.000000
 
  0.4166667E+00  0.1666667E+00  0.0000000E+00  0.1388889E-01
    1      -19.669095   1.000000
    2      -13.590823   1.000000
    3      -13.311374   1.000000
    4      -13.251262   1.000000
    5       -7.494475   1.000000
    6       -7.214289   1.000000
    7       -7.206329   1.000000
    8       -7.181544   1.000000
    9       -7.085707   1.000000
   10       -6.499080   1.000000
   11       -6.475528   1.000000
   12       -6.473850   1.000000
   13       -3.557170   1.000000
   14       -2.831409   1.000000
   15       -1.967906   1.000000
   16       -1.743380   1.000000
   17       -1.245203   1.000000
   18       -1.051248   1.000000
   19       -0.876902   1.000000
   20       -0.787063   1.000000
   21       -0.636185   1.000000
   22        3.415584   0.000000
   23        6.421734   0.000000
   24        6.630265   0.000000
   25        6.818619   0.000000
   26        7.075668   0.000000
   27        7.133875   0.000000
   28        7.874354   0.000000
   29        7.891766   0.000000
   30        8.254925   0.000000
   31        8.780845   0.000000
   32        9.062854   0.000000
   33        9.569598   0.000000
   34       10.004230   0.000000
   35       10.248298   0.000000
   36       10.767521   0.000000
   37       11.382255   0.000000
   38       11.830094   0.000000
   39       12.094349   0.000000
   40       13.486548   0.000000
 
  0.5000000E+00  0.1666667E+00  0.0000000E+00  0.6944444E-02
    1      -19.668826   1.000000
    2      -13.578494   1.000000
    3      -13.318216   1.000000
    4      -13.251022   1.000000
    5       -7.525423   1.000000
    6       -7.216355   1.000000
    7       -7.208437   1.000000
    8       -7.181399   1.000000
    9       -7.086009   1.000000
   10       -6.490803   1.000000
   11       -6.481514   1.000000
   12       -6.470876   1.000000
   13       -3.567188   1.000000
   14       -2.821674   1.000000
   15       -1.925033   1.000000
   16       -1.784099   1.000000
   17       -1.256671   1.000000
   18       -1.052800   1.000000
   19       -0.900664   1.000000
   20       -0.735453   1.000000
   21       -0.705056   1.000000
   22        3.700315   0.000000
   23        6.552479   0.000000
   24        6.719696   0.000000
   25        6.915539   0.000000
   26        6.963358   0.000000
   27        7.132824   0.000000
   28        7.959657   0.000000
   29        8.085716   0.000000
   30        8.185723   0.000000
   31        8.516732   0.000000
   32        8.966443   0.000000
   33        9.330547   0.000000
   34        9.860026   0.000000
   35       10.258545   0.000000
   36       10.693243   0.000000
   37       11.467518   0.000000
   38       11.473604   0.000000
   39       12.069738   0.000000
   40       13.848887   0.000000
 
  0.2500000E+00  0.2500000E+00  0.0000000E+00  0.6944444E-02
    1      -19.669887   1.000000
    2      -13.624037   1.000000
    3      -13.284161   1.000000
    4      -13.259547   1.000000
    5       -7.351911   1.000000
    6       -7.208109   1.000000
    7       -7.193221   1.000000
    8       -7.188213   1.000000
    9       -7.141250   1.000000
   10       -6.522152   1.000000
   11       -6.484309   1.000000
   12       -6.472997   1.000000
   13       -3.622332   1.000000
   14       -2.848872   1.000000
   15       -1.957822   1.000000
   16       -1.640866   1.000000
   17       -1.201362   1.000000
   18       -1.049219   1.000000
   19       -0.819398   1.000000
   20       -0.799690   1.000000
   21       -0.426260   1.000000
   22        2.586866   0.000000
   23        5.956045   0.000000
   24        6.189264   0.000000
   25        6.375202   0.000000
   26        7.126386   0.000000
   27        7.133902   0.000000
   28        7.541747   0.000000
   29        8.374649   0.000000
   30        8.551530   0.000000
   31        8.914471   0.000000
   32        9.564379   0.000000
   33       10.182805   0.000000
   34       10.355721   0.000000
   35       10.807640   0.000000
   36       11.180021   0.000000
   37       11.227521   0.000000
   38       12.084260   0.000000
   39       12.743237   0.000000
   40       13.053400   0.000000
 
  0.3333333E+00  0.2500000E+00  0.0000000E+00  0.1388889E-01
    1      -19.668939   1.000000
    2      -13.584442   1.000000
    3      -13.297581   1.000000
    4      -13.263261   1.000000
    5       -7.441177   1.000000
    6       -7.215203   1.000000
    7       -7.198939   1.000000
    8       -7.188937   1.000000
    9       -7.170414   1.000000
   10       -6.521629   1.000000
   11       -6.478681   1.000000
   12       -6.475478   1.000000
   13       -3.729584   1.000000
   14       -2.802939   1.000000
   15       -1.774170   1.000000
   16       -1.726083   1.000000
   17       -1.232975   1.000000
   18       -1.079053   1.000000
   19       -0.894937   1.000000
   20       -0.746152   1.000000
   21       -0.413853   1.000000
   22        3.121415   0.000000
   23        6.278113   0.000000
   24        6.451966   0.000000
   25        6.731005   0.000000
   26        7.239759   0.000000
   27        7.517472   0.000000
   28        7.590764   0.000000
   29        7.795803   0.000000
   30        8.374915   0.000000
   31        8.570604   0.000000
   32        9.125915   0.000000
   33        9.855001   0.000000
   34       10.390278   0.000000
   35       10.490576   0.000000
   36       10.827049   0.000000
   37       11.061338   0.000000
   38       11.974360   0.000000
   39       12.523770   0.000000
   40       13.201255   0.000000
 
  0.4166667E+00  0.2500000E+00  0.0000000E+00  0.1388889E-01
    1      -19.668243   1.000000
    2      -13.551506   1.000000
    3      -13.312640   1.000000
    4      -13.264413   1.000000
    5       -7.515566   1.000000
    6       -7.220069   1.000000
    7       -7.204153   1.000000
    8       -7.188376   1.000000
    9       -7.180986   1.000000
   10       -6.515119   1.000000
   11       -6.489723   1.000000
   12       -6.469014   1.000000
   13       -3.787294   1.000000
   14       -2.767924   1.000000
   15       -1.853594   1.000000
   16       -1.593732   1.000000
   17       -1.246479   1.000000
   18       -1.093178   1.000000
   19       -0.958689   1.000000
   20       -0.671623   1.000000
   21       -0.464003   1.000000
   22        3.678810   0.000000
   23        6.632041   0.000000
   24        6.650945   0.000000
   25        6.972599   0.000000
   26        7.050470   0.000000
   27        7.342756   0.000000
   28        7.781990   0.000000
   29        7.909171   0.000000
   30        8.235527   0.000000
   31        8.330276   0.000000
   32        8.751555   0.000000
   33        9.488376   0.000000
   34       10.079466   0.000000
   35       10.554537   0.000000
   36       10.612481   0.000000
   37       10.951373   0.000000
   38       11.945977   0.000000
   39       12.016274   0.000000
   40       13.474103   0.000000
 
  0.5000000E+00  0.2500000E+00  0.0000000E+00  0.6944444E-02
    1      -19.667989   1.000000
    2      -13.538152   1.000000
    3      -13.319586   1.000000
    4      -13.264662   1.000000
    5       -7.543643   1.000000
    6       -7.221787   1.000000
    7       -7.206081   1.000000
    8       -7.188119   1.000000
    9       -7.183671   1.000000
   10       -6.506408   1.000000
   11       -6.500218   1.000000
   12       -6.466649   1.000000
   13       -3.805286   1.000000
   14       -2.754783   1.000000
   15       -1.881965   1.000000
   16       -1.551000   1.000000
   17       -1.248714   1.000000
   18       -1.094716   1.000000
   19       -0.985841   1.000000
   20       -0.605593   1.000000
   21       -0.524205   1.000000