       N       E                     dE             d eps       ncg     rms          rms(c)
DAV:   1     0.216360434619E+03    0.21636E+03   -0.22719E+04  6720   0.109E+03
DAV:   2    -0.994059582446E+01   -0.22630E+03   -0.22439E+03  9800   0.155E+02
DAV:   3    -0.146987047154E+02   -0.47581E+01   -0.47581E+01  7520   0.323E+01
DAV:   4    -0.147142263849E+02   -0.15522E-01   -0.15522E-01 12960   0.188E+00
DAV:   5    -0.147142269623E+02   -0.57737E-06   -0.57737E-06  7320   0.865E-03    0.709E+00
DAV:   6    -0.140020316495E+02    0.71220E+00   -0.19784E+00  8400   0.795E+00    0.568E+00
DAV:   7    -0.138882430259E+02    0.11379E+00   -0.45755E-01 11360   0.347E+00    0.275E+00
DAV:   8    -0.138807267897E+02    0.75162E-02   -0.57344E-02 10560   0.117E+00    0.278E-01
DAV:   9    -0.138807814586E+02   -0.54669E-04   -0.20740E-03 10760   0.249E-01    0.114E-01
DAV:  10    -0.138808934177E+02   -0.11196E-03   -0.30920E-04  9520   0.789E-02    0.462E-02
DAV:  11    -0.138809061260E+02   -0.12708E-04   -0.28947E-05  8920   0.227E-02    0.680E-03
DAV:  12    -0.138809059555E+02    0.17049E-06   -0.36833E-07 10880   0.352E-03
   1 F= -.13880906E+02 E0= -.13880906E+02  d E =-.865589E-73
 Linear response reoptimize wavefunctions
DAV:   1    -0.138809061423E+02   -0.18678E-06   -0.35667E-07  8920   0.197E-03
DAV:   2    -0.138809061425E+02   -0.22374E-09   -0.22401E-09 11320   0.199E-04
DAV:   3    -0.138809061425E+02    0.00000E+00   -0.91690E-12  8640   0.315E-06
 Linear response to external field (no local field effect), progress :
  Direction:   1
       N       E                     dE             d eps       ncg     rms          rms(c)
RMM:   1    -0.153130163931E+01   -0.15313E+01   -0.57226E+00  5257   0.270E+00
RMM:   2    -0.161278931202E+01   -0.81488E-01   -0.21121E-02  5292   0.396E-01
RMM:   3    -0.161283513217E+01   -0.45820E-04   -0.11752E-04  5291   0.263E-02
RMM:   4    -0.161283450040E+01    0.63177E-06   -0.13116E-06  3340   0.239E-03
RMM:   5    -0.161283449041E+01    0.99855E-08   -0.24803E-08  1238   0.355E-04
 Linear response to external field (no local field effect), progress :
  Direction:   2
       N       E                     dE             d eps       ncg     rms          rms(c)
RMM:   1    -0.181962423416E+01   -0.18196E+01   -0.75347E+00  5266   0.289E+00
RMM:   2    -0.194490704320E+01   -0.12528E+00   -0.28363E-02  5292   0.455E-01
RMM:   3    -0.194499844947E+01   -0.91406E-04   -0.15274E-04  5292   0.304E-02
RMM:   4    -0.194499781795E+01    0.63153E-06   -0.17187E-06  3511   0.283E-03
RMM:   5    -0.194499780649E+01    0.11453E-07   -0.49888E-08  1486   0.400E-04
 Linear response to external field (no local field effect), progress :
  Direction:   3
       N       E                     dE             d eps       ncg     rms          rms(c)
RMM:   1    -0.146555556863E+01   -0.14656E+01   -0.56375E+00  5247   0.266E+00
RMM:   2    -0.155530582169E+01   -0.89750E-01   -0.21889E-02  5292   0.388E-01
RMM:   3    -0.155537598599E+01   -0.70164E-04   -0.12617E-04  5290   0.262E-02
RMM:   4    -0.155537555473E+01    0.43126E-06   -0.14406E-06  3263   0.244E-03
RMM:   5    -0.155537554623E+01    0.85034E-08   -0.50785E-08  1210   0.374E-04
 Linear response to external field, progress :
  Direction:   1
       N       E                     dE             d eps       ncg     rms          rms(c)
RMM:   1    -0.160488823424E+01   -0.16049E+01   -0.62922E+00 12199   0.275E+00
RMM:   2    -0.170433341313E+01   -0.99445E-01   -0.23814E-02 12348   0.413E-01    0.238E+00
RMM:   3    -0.160722282516E+01    0.97111E-01   -0.11276E-01 22516   0.898E-01    0.121E+00
RMM:   4    -0.164870277390E+01   -0.41480E-01   -0.75467E-02 31961   0.758E-01    0.292E-01
RMM:   5    -0.168725430975E+01   -0.38552E-01   -0.22002E-03 23989   0.204E-01    0.495E-02
RMM:   6    -0.168898621699E+01   -0.17319E-02   -0.30894E-05 24841   0.218E-02    0.228E-02
RMM:   7    -0.169194470464E+01   -0.29585E-02   -0.23743E-05 25799   0.201E-02    0.728E-03
RMM:   8    -0.169230236977E+01   -0.35767E-03   -0.35021E-06 26539   0.633E-03    0.104E-03
RMM:   9    -0.169229628247E+01    0.60873E-05   -0.24633E-07 23148   0.852E-04    0.541E-04
RMM:  10    -0.169230568459E+01   -0.94021E-05   -0.20207E-07 21728   0.731E-04    0.692E-05
RMM:  11    -0.169230209174E+01    0.35928E-05   -0.20864E-07 13421   0.209E-04    0.260E-05
RMM:  12    -0.169230165829E+01    0.43346E-06   -0.17043E-07  7950   0.220E-04    0.547E-06
 Linear response to external field, progress :
  Direction:   2
       N       E                     dE             d eps       ncg     rms          rms(c)
RMM:   1    -0.160488809788E+01   -0.16049E+01   -0.62922E+00 12199   0.275E+00
RMM:   2    -0.170433445263E+01   -0.99446E-01   -0.23819E-02 12348   0.413E-01    0.238E+00
RMM:   3    -0.160722346302E+01    0.97111E-01   -0.11277E-01 22517   0.898E-01    0.121E+00
RMM:   4    -0.164870264104E+01   -0.41479E-01   -0.75470E-02 31958   0.758E-01    0.292E-01
RMM:   5    -0.168725432458E+01   -0.38552E-01   -0.22007E-03 23988   0.204E-01    0.495E-02
RMM:   6    -0.168898627737E+01   -0.17320E-02   -0.30879E-05 24839   0.218E-02    0.228E-02
RMM:   7    -0.169194451294E+01   -0.29582E-02   -0.23731E-05 25793   0.201E-02    0.728E-03
RMM:   8    -0.169230224506E+01   -0.35773E-03   -0.34962E-06 26526   0.633E-03    0.104E-03
RMM:   9    -0.169229613801E+01    0.61071E-05   -0.23903E-07 23145   0.853E-04    0.541E-04
RMM:  10    -0.169230554474E+01   -0.94067E-05   -0.19618E-07 21725   0.731E-04    0.692E-05
RMM:  11    -0.169230195880E+01    0.35859E-05   -0.20085E-07 13420   0.209E-04    0.260E-05
RMM:  12    -0.169230151812E+01    0.44068E-06   -0.16644E-07  7947   0.220E-04    0.547E-06
 Linear response to external field, progress :
  Direction:   3
       N       E                     dE             d eps       ncg     rms          rms(c)
RMM:   1    -0.160670510987E+01   -0.16067E+01   -0.63104E+00 12185   0.274E+00
RMM:   2    -0.170433411107E+01   -0.97629E-01   -0.23741E-02 12348   0.413E-01    0.238E+00
RMM:   3    -0.160722398509E+01    0.97110E-01   -0.11277E-01 22513   0.898E-01    0.121E+00
RMM:   4    -0.164870494955E+01   -0.41481E-01   -0.75477E-02 31928   0.758E-01    0.292E-01
RMM:   5    -0.168725657379E+01   -0.38552E-01   -0.21999E-03 23986   0.204E-01    0.495E-02
RMM:   6    -0.168898839920E+01   -0.17318E-02   -0.31042E-05 24835   0.218E-02    0.228E-02
RMM:   7    -0.169194619779E+01   -0.29578E-02   -0.23803E-05 25775   0.201E-02    0.728E-03
RMM:   8    -0.169230380773E+01   -0.35761E-03   -0.33619E-06 26516   0.633E-03    0.104E-03
RMM:   9    -0.169229772039E+01    0.60873E-05   -0.14302E-07 23127   0.852E-04    0.541E-04
RMM:  10    -0.169230711908E+01   -0.93987E-05   -0.88897E-08 21709   0.730E-04    0.692E-05
RMM:  11    -0.169230353360E+01    0.35855E-05   -0.98877E-08 13401   0.208E-04    0.260E-05
RMM:  12    -0.169230309740E+01    0.43621E-06   -0.61849E-08  7913   0.219E-04    0.546E-06
 Linear response DOF=           4
 Linear response progress:
  Degree of freedom:   1/  4
       N       E                     dE             d eps       ncg     rms          rms(c)
RMM:   1    -0.147909079285E+00   -0.14791E+00    0.11963E-01 33702   0.932E-01
RMM:   2    -0.148548413456E+00   -0.63933E-03   -0.12321E-03 25201   0.114E-01    0.104E-01
RMM:   3    -0.148845919195E+00   -0.29751E-03   -0.18373E-04 23745   0.368E-02    0.518E-02
RMM:   4    -0.149128000644E+00   -0.28208E-03   -0.67812E-05 24334   0.219E-02    0.128E-02
RMM:   5    -0.149138997437E+00   -0.10997E-04   -0.22874E-06 25873   0.570E-03    0.217E-03
RMM:   6    -0.149150661698E+00   -0.11664E-04   -0.14102E-07 26166   0.115E-03    0.871E-04
RMM:   7    -0.149147841272E+00    0.28204E-05   -0.21043E-08 26099   0.454E-04    0.145E-04
RMM:   8    -0.149147551061E+00    0.29021E-06   -0.58450E-09 26786   0.124E-04    0.689E-05
 Linear response progress:
  Degree of freedom:   2/  4
       N       E                     dE             d eps       ncg     rms          rms(c)
RMM:   1    -0.150762845115E+00   -0.15076E+00    0.62590E-02 58773   0.892E-01
RMM:   2    -0.149672939164E+00    0.10899E-02   -0.13034E-03 43822   0.114E-01    0.352E-02
RMM:   3    -0.149896335471E+00   -0.22340E-03   -0.24617E-05 45539   0.139E-02    0.211E-02
RMM:   4    -0.150183488008E+00   -0.28715E-03   -0.20062E-05 45518   0.117E-02    0.663E-03
RMM:   5    -0.150199629285E+00   -0.16141E-04   -0.10388E-06 46512   0.366E-03    0.228E-03
RMM:   6    -0.150195987140E+00    0.36421E-05    0.30117E-11 47101   0.398E-04    0.131E-03
RMM:   7    -0.150192930895E+00    0.30562E-05   -0.10397E-08 44963   0.633E-04    0.174E-04
RMM:   8    -0.150191961271E+00    0.96962E-06    0.28307E-08 45452   0.202E-04    0.971E-05
 Linear response progress:
  Degree of freedom:   3/  4
       N       E                     dE             d eps       ncg     rms          rms(c)
RMM:   1    -0.438691696285E+00   -0.43869E+00   -0.21738E-01 24955   0.151E+00
RMM:   2    -0.438858649175E+00   -0.16695E-03   -0.15264E-03 24009   0.133E-01    0.108E-01
RMM:   3    -0.438390759457E+00    0.46789E-03   -0.60447E-05 26303   0.250E-02    0.580E-02
RMM:   4    -0.437907227736E+00    0.48353E-03   -0.44284E-05 25628   0.222E-02    0.122E-02
RMM:   5    -0.437829678945E+00    0.77549E-04   -0.98705E-07 25322   0.415E-03    0.321E-03
RMM:   6    -0.437854152402E+00   -0.24473E-04   -0.27717E-07 26100   0.165E-03    0.582E-04
RMM:   7    -0.437857669797E+00   -0.35174E-05   -0.17578E-08 26837   0.411E-04    0.134E-04
RMM:   8    -0.437858492888E+00   -0.82309E-06   -0.47229E-09 28135   0.155E-04    0.457E-05
 Linear response progress:
  Degree of freedom:   4/  4
       N       E                     dE             d eps       ncg     rms          rms(c)
RMM:   1    -0.183616505993E+00   -0.18362E+00    0.10221E-01 31262   0.676E-01
RMM:   2    -0.185435046410E+00   -0.18185E-02   -0.17387E-03 25680   0.920E-02    0.215E-02
RMM:   3    -0.185570152040E+00   -0.13511E-03   -0.17682E-05 27322   0.132E-02    0.948E-03
RMM:   4    -0.185675015918E+00   -0.10486E-03   -0.57406E-06 27357   0.712E-03    0.269E-03
RMM:   5    -0.185723701883E+00   -0.48686E-04   -0.38449E-07 27707   0.267E-03    0.674E-04
RMM:   6    -0.185724609648E+00   -0.90776E-06   -0.89869E-09 28534   0.287E-04    0.372E-04
 Linear response finished
