 vasp.5.4.4.18Apr17-6-g9f103f2a35 (build Aug 14 2019 21:35:17) complex          
  
 executed on             LinuxIFC date 2020.11.06  13:01:47
 running on   40 total cores
 distrk:  each k-point on   40 cores,    1 groups
 distr:  one band on NCORES_PER_BAND=   1 cores,   40 groups


--------------------------------------------------------------------------------------------------------


 INCAR:
 POTCAR:    PAW_PBE Br 06Sep2000                  
 POTCAR:    PAW_PBE Cd 06Sep2000                  
 POTCAR:    PAW_PBE Cs_sv 08Apr2002               

 ----------------------------------------------------------------------------- 
|                                                                             |
|           W    W    AA    RRRRR   N    N  II  N    N   GGGG   !!!           |
|           W    W   A  A   R    R  NN   N  II  NN   N  G    G  !!!           |
|           W    W  A    A  R    R  N N  N  II  N N  N  G       !!!           |
|           W WW W  AAAAAA  RRRRR   N  N N  II  N  N N  G  GGG   !            |
|           WW  WW  A    A  R   R   N   NN  II  N   NN  G    G                |
|           W    W  A    A  R    R  N    N  II  N    N   GGGG   !!!           |
|                                                                             |
|      For optimal performance we recommend to set                            |
|        NCORE= 4 - approx SQRT( number of cores)                             |
|      NCORE specifies how many cores store one orbital (NPAR=cpu/NCORE).     |
|      This setting can  greatly improve the performance of VASP for DFT.     |
|      The default,   NCORE=1            might be grossly inefficient         |
|      on modern multi-core architectures or massively parallel machines.     |
|      Do your own testing !!!!                                               |
|      Unfortunately you need to use the default for GW and RPA calculations. |
|      (for HF NCORE is supported but not extensively tested yet)             |
|                                                                             |
 ----------------------------------------------------------------------------- 

 POTCAR:    PAW_PBE Br 06Sep2000                  
   VRHFIN =Br: s2p5                                                             
   LEXCH  = PE                                                                  
   EATOM  =   368.4488 eV,   27.0802 Ry                                         
                                                                                
   TITEL  = PAW_PBE Br 06Sep2000                                                
   LULTRA =        F    use ultrasoft PP ?                                      
   IUNSCR =        1    unscreen: 0-lin 1-nonlin 2-no                           
   RPACOR =    1.900    partial core radius                                     
   POMASS =   79.904; ZVAL   =    7.000    mass and valenz                      
   RCORE  =    2.100    outmost cutoff radius                                   
   RWIGS  =    2.200; RWIGS  =    1.164    wigner-seitz radius (au A)           
   ENMAX  =  216.285; ENMIN  =  162.214 eV                                      
   ICORE  =        3    local potential                                         
   LCOR   =        T    correct aug charges                                     
   LPAW   =        T    paw PP                                                  
   EAUG   =  503.852                                                            
   DEXC   =    0.000                                                            
   RMAX   =    2.139    core radius for proj-oper                               
   RAUG   =    1.300    factor for augmentation sphere                          
   RDEP   =    2.186    radius for radial grids                                 
   RDEPT  =    1.890    core radius for aug-charge                              
                                                                                
   Atomic configuration                                                         
   10 entries                                                                   
     n  l   j            E        occ.                                          
     1  0  0.50    -13316.2796   2.0000                                         
     2  0  0.50     -1732.8239   2.0000                                         
     2  1  1.50     -1528.2193   6.0000                                         
     3  0  0.50      -238.0460   2.0000                                         
     3  1  1.50      -173.4609   6.0000                                         
     3  2  2.50       -66.7132  10.0000                                         
     4  0  0.50       -20.1334   2.0000                                         
     4  1  0.50        -7.8591   5.0000                                         
     4  2  2.50        -8.1635   0.0000                                         
     4  3  2.50        -8.1635   0.0000                                         
   Description                                                                  
     l       E           TYP  RCUT    TYP  RCUT                                 
     0    -20.1333652     23  2.100                                             
     0    -21.4939478     23  2.100                                             
     1     -7.8591052     23  2.100                                             
     1     -3.1608434     23  2.100                                             
     2     -8.1634956     23  2.100                                             
     3     -1.3605826      7  2.100                                             
  local pseudopotential read in
  partial core-charges read in
  partial kinetic energy density read in
  atomic valenz-charges read in
  non local Contribution for L=           0  read in
    real space projection operators read in
  non local Contribution for L=           0  read in
    real space projection operators read in
  non local Contribution for L=           1  read in
    real space projection operators read in
  non local Contribution for L=           1  read in
    real space projection operators read in
  non local Contribution for L=           2  read in
    real space projection operators read in
    PAW grid and wavefunctions read in
 
   number of l-projection  operators is LMAX  =           5
   number of lm-projection operators is LMMAX =          13
 
 POTCAR:    PAW_PBE Cd 06Sep2000                  
   VRHFIN =Cd : s2 d10                                                          
   LEXCH  = PE                                                                  
   EATOM  =  1293.1815 eV,   95.0462 Ry                                         
                                                                                
   TITEL  = PAW_PBE Cd 06Sep2000                                                
   LULTRA =        F    use ultrasoft PP ?                                      
   IUNSCR =        1    unscreen: 0-lin 1-nonlin 2-no                           
   RPACOR =    2.000    partial core radius                                     
   POMASS =  112.411; ZVAL   =   12.000    mass and valenz                      
   RCORE  =    2.300    outmost cutoff radius                                   
   RWIGS  =    2.980; RWIGS  =    1.577    wigner-seitz radius (au A)           
   ENMAX  =  274.336; ENMIN  =  205.752 eV                                      
   RCLOC  =    2.054    cutoff for local pot                                    
   LCOR   =        T    correct aug charges                                     
   LPAW   =        T    paw PP                                                  
   EAUG   =  456.106                                                            
   DEXC   =    0.000                                                            
   RMAX   =    2.358    core radius for proj-oper                               
   RAUG   =    1.300    factor for augmentation sphere                          
   RDEP   =    2.450    radius for radial grids                                 
   RDEPT  =    1.955    core radius for aug-charge                              
                                                                                
   Atomic configuration                                                         
   12 entries                                                                   
     n  l   j            E        occ.                                          
     1  0  0.50    -26519.7817   2.0000                                         
     2  0  0.50     -3936.9612   2.0000                                         
     2  1  1.50     -3532.2230   6.0000                                         
     3  0  0.50      -733.7908   2.0000                                         
     3  1  1.50      -601.0792   6.0000                                         
     3  2  2.50      -393.5307  10.0000                                         
     4  0  0.50      -105.8977   2.0000                                         
     4  1  1.50       -66.9488   6.0000                                         
     4  2  2.50       -11.7331  10.0000                                         
     5  0  0.50        -5.6592   2.0000                                         
     5  1  0.50        -1.3606   0.0000                                         
     4  3  2.50        -1.3606   0.0000                                         
   Description                                                                  
     l       E           TYP  RCUT    TYP  RCUT                                 
     2    -11.7331479     23  2.300                                             
     2    -13.0937305     23  2.300                                             
     0     -5.6591502     23  2.300                                             
     0     -1.5561433     23  2.300                                             
     1     -2.7211652     23  2.300                                             
     1      8.3548275     23  2.300                                             
  local pseudopotential read in
  partial core-charges read in
  partial kinetic energy density read in
  atomic valenz-charges read in
  non local Contribution for L=           2  read in
    real space projection operators read in
  non local Contribution for L=           2  read in
    real space projection operators read in
  non local Contribution for L=           0  read in
    real space projection operators read in
  non local Contribution for L=           0  read in
    real space projection operators read in
  non local Contribution for L=           1  read in
    real space projection operators read in
  non local Contribution for L=           1  read in
    real space projection operators read in
    PAW grid and wavefunctions read in
 
   number of l-projection  operators is LMAX  =           6
   number of lm-projection operators is LMMAX =          18
 
 POTCAR:    PAW_PBE Cs_sv 08Apr2002               
   VRHFIN =Cs: 5s5p6s                                                           
   LEXCH  = PE                                                                  
   EATOM  =   555.6835 eV,   40.8416 Ry                                         
                                                                                
   TITEL  = PAW_PBE Cs_sv 08Apr2002                                             
   LULTRA =        F    use ultrasoft PP ?                                      
   IUNSCR =        1    unscreen: 0-lin 1-nonlin 2-no                           
   RPACOR =    2.200    partial core radius                                     
   POMASS =  132.900; ZVAL   =    9.000    mass and valenz                      
   RCORE  =    2.500    outmost cutoff radius                                   
   RWIGS  =    2.500; RWIGS  =    1.323    wigner-seitz radius (au A)           
   ENMAX  =  220.318; ENMIN  =  165.238 eV                                      
   RCLOC  =    2.207    cutoff for local pot                                    
   LCOR   =        T    correct aug charges                                     
   LPAW   =        T    paw PP                                                  
   EAUG   =  407.933                                                            
   DEXC   =    0.000                                                            
   RMAX   =    2.554    core radius for proj-oper                               
   RAUG   =    1.300    factor for augmentation sphere                          
   RDEP   =    2.590    radius for radial grids                                 
   RDEPT  =    2.117    core radius for aug-charge                              
                                                                                
   Atomic configuration                                                         
   13 entries                                                                   
     n  l   j            E        occ.                                          
     1  0  0.50    -35790.1377   2.0000                                         
     2  0  0.50     -5613.6201   2.0000                                         
     2  1  1.50     -5035.0101   6.0000                                         
     3  0  0.50     -1167.0767   2.0000                                         
     3  1  1.50      -980.9754   6.0000                                         
     3  2  2.50      -708.0703  10.0000                                         
     4  0  0.50      -220.2386   2.0000                                         
     4  1  1.50      -160.7596   6.0000                                         
     4  2  2.50       -74.2354  10.0000                                         
     5  0  0.50       -26.7287   2.0000                                         
     6  0  0.50        -2.0862   1.0000                                         
     5  1  1.50       -13.5159   6.0000                                         
     5  2  2.50        -0.4136   0.0000                                         
   Description                                                                  
     l       E           TYP  RCUT    TYP  RCUT                                 
     0    -26.7287425     23  1.900                                             
     0     -2.0862306     23  1.900                                             
     1    -13.5158719     23  2.500                                             
     1     -2.7211652     23  2.500                                             
     2     -0.4136171     23  2.500                                             
  local pseudopotential read in
  partial core-charges read in
  partial kinetic energy density read in
  atomic valenz-charges read in
  non local Contribution for L=           0  read in
    real space projection operators read in
  non local Contribution for L=           0  read in
    real space projection operators read in
  non local Contribution for L=           1  read in
    real space projection operators read in
  non local Contribution for L=           1  read in
    real space projection operators read in
  non local Contribution for L=           2  read in
    real space projection operators read in
    PAW grid and wavefunctions read in
 
   number of l-projection  operators is LMAX  =           5
   number of lm-projection operators is LMMAX =          13
 

 ----------------------------------------------------------------------------- 
|                                                                             |
|  ADVICE TO THIS USER RUNNING 'VASP/VAMP'   (HEAR YOUR MASTER'S VOICE ...):  |
|                                                                             |
|      You enforced a specific xc-type in the INCAR file,                     |
|      a different type was found on the POTCAR file                          |
|          I HOPE YOU KNOW, WHAT YOU ARE  DOING                               |
|                                                                             |
 ----------------------------------------------------------------------------- 

  PAW_PBE Br 06Sep2000                  :
 energy of atom  1       EATOM= -368.4488
 kinetic energy error for atom=    0.0007 (will be added to EATOM!!)
  PAW_PBE Cd 06Sep2000                  :
 energy of atom  2       EATOM=-1293.1815
 kinetic energy error for atom=    0.0023 (will be added to EATOM!!)
  PAW_PBE Cs_sv 08Apr2002               :
 energy of atom  3       EATOM= -555.6835
 kinetic energy error for atom=    0.0011 (will be added to EATOM!!)
 
 
 POSCAR: Br3Cd1Cs1   [CUB,CUB,cP5] (STD_PRIM doi:
  positions in direct lattice
  velocities in cartesian coordinates
 exchange correlation table for  LEXCH =       14
   RHO(1)=    0.500       N(1)  =     2000
   RHO(2)=  100.500       N(2)  =     4000
 


--------------------------------------------------------------------------------------------------------


 ion  position               nearest neighbor table
   1  0.000  0.500  0.500-   4 2.74   4 2.74
   2  0.500  0.000  0.500-   4 2.74   4 2.74
   3  0.500  0.500  0.000-   4 2.74   4 2.74
   4  0.500  0.500  0.500-   1 2.74   2 2.74   3 2.74   3 2.74   2 2.74   1 2.74
   5  0.000  0.000  0.000-
 
  LATTYP: Found a simple cubic cell.
 ALAT       =     5.4872473072
  
  Lattice vectors:
  
 A1 = (   5.4872473072,   0.0000000000,   0.0000000000)
 A2 = (   0.0000000000,   5.4872473072,   0.0000000000)
 A3 = (   0.0000000000,   0.0000000000,   5.4872473072)


Analysis of symmetry for initial positions (statically):
=====================================================================
 Subroutine PRICEL returns:
 Original cell was already a primitive cell.
 

 Routine SETGRP: Setting up the symmetry group for a 
 simple cubic supercell.


 Subroutine GETGRP returns: Found 48 space group operations
 (whereof 48 operations were pure point group operations)
 out of a pool of 48 trial point group operations.


The static configuration has the point symmetry O_h .


Analysis of symmetry for dynamics (positions and initial velocities):
=====================================================================
 Subroutine PRICEL returns:
 Original cell was already a primitive cell.
 

 Routine SETGRP: Setting up the symmetry group for a 
 simple cubic supercell.


 Subroutine GETGRP returns: Found 48 space group operations
 (whereof 48 operations were pure point group operations)
 out of a pool of 48 trial point group operations.


The dynamic configuration has the point symmetry O_h .


 Subroutine INISYM returns: Found 48 space group operations
 (whereof 48 operations are pure point group operations),
 and found     1 'primitive' translations

 
 
 KPOINTS: A                                       

Automatic generation of k-mesh.
Space group operators:
 irot       det(A)        alpha          n_x          n_y          n_z        tau_x        tau_y        tau_z
    1     1.000000     0.000000     1.000000     0.000000     0.000000     0.000000     0.000000     0.000000
    2    -1.000000     0.000000     1.000000     0.000000     0.000000     0.000000     0.000000     0.000000
    3     1.000000   120.000000    -0.577350    -0.577350    -0.577350     0.000000     0.000000     0.000000
    4    -1.000000   120.000000    -0.577350    -0.577350    -0.577350     0.000000     0.000000     0.000000
    5     1.000000   120.000000     0.577350     0.577350     0.577350     0.000000     0.000000     0.000000
    6    -1.000000   120.000000     0.577350     0.577350     0.577350     0.000000     0.000000     0.000000
    7     1.000000    90.000000     0.000000     0.000000    -1.000000     0.000000     0.000000     0.000000
    8    -1.000000    90.000000     0.000000     0.000000    -1.000000     0.000000     0.000000     0.000000
    9     1.000000   180.000000     0.000000     0.707107     0.707107     0.000000     0.000000     0.000000
   10    -1.000000   180.000000     0.000000     0.707107     0.707107     0.000000     0.000000     0.000000
   11     1.000000    90.000000     0.000000     1.000000     0.000000     0.000000     0.000000     0.000000
   12    -1.000000    90.000000     0.000000     1.000000     0.000000     0.000000     0.000000     0.000000
   13     1.000000   180.000000     0.000000     0.000000     1.000000     0.000000     0.000000     0.000000
   14    -1.000000   180.000000     0.000000     0.000000     1.000000     0.000000     0.000000     0.000000
   15     1.000000   120.000000    -0.577350     0.577350     0.577350     0.000000     0.000000     0.000000
   16    -1.000000   120.000000    -0.577350     0.577350     0.577350     0.000000     0.000000     0.000000
   17     1.000000   120.000000    -0.577350     0.577350    -0.577350     0.000000     0.000000     0.000000
   18    -1.000000   120.000000    -0.577350     0.577350    -0.577350     0.000000     0.000000     0.000000
   19     1.000000    90.000000     0.000000     0.000000     1.000000     0.000000     0.000000     0.000000
   20    -1.000000    90.000000     0.000000     0.000000     1.000000     0.000000     0.000000     0.000000
   21     1.000000    90.000000    -1.000000     0.000000     0.000000     0.000000     0.000000     0.000000
   22    -1.000000    90.000000    -1.000000     0.000000     0.000000     0.000000     0.000000     0.000000
   23     1.000000   180.000000     0.707107     0.000000     0.707107     0.000000     0.000000     0.000000
   24    -1.000000   180.000000     0.707107     0.000000     0.707107     0.000000     0.000000     0.000000
   25     1.000000   120.000000     0.577350    -0.577350     0.577350     0.000000     0.000000     0.000000
   26    -1.000000   120.000000     0.577350    -0.577350     0.577350     0.000000     0.000000     0.000000
   27     1.000000   120.000000    -0.577350    -0.577350     0.577350     0.000000     0.000000     0.000000
   28    -1.000000   120.000000    -0.577350    -0.577350     0.577350     0.000000     0.000000     0.000000
   29     1.000000   180.000000     1.000000     0.000000     0.000000     0.000000     0.000000     0.000000
   30    -1.000000   180.000000     1.000000     0.000000     0.000000     0.000000     0.000000     0.000000
   31     1.000000    90.000000     0.000000    -1.000000     0.000000     0.000000     0.000000     0.000000
   32    -1.000000    90.000000     0.000000    -1.000000     0.000000     0.000000     0.000000     0.000000
   33     1.000000   180.000000     0.707107     0.707107     0.000000     0.000000     0.000000     0.000000
   34    -1.000000   180.000000     0.707107     0.707107     0.000000     0.000000     0.000000     0.000000
   35     1.000000    90.000000     1.000000     0.000000     0.000000     0.000000     0.000000     0.000000
   36    -1.000000    90.000000     1.000000     0.000000     0.000000     0.000000     0.000000     0.000000
   37     1.000000   120.000000     0.577350    -0.577350    -0.577350     0.000000     0.000000     0.000000
   38    -1.000000   120.000000     0.577350    -0.577350    -0.577350     0.000000     0.000000     0.000000
   39     1.000000   180.000000     0.000000     1.000000     0.000000     0.000000     0.000000     0.000000
   40    -1.000000   180.000000     0.000000     1.000000     0.000000     0.000000     0.000000     0.000000
   41     1.000000   120.000000     0.577350     0.577350    -0.577350     0.000000     0.000000     0.000000
   42    -1.000000   120.000000     0.577350     0.577350    -0.577350     0.000000     0.000000     0.000000
   43     1.000000   180.000000     0.000000    -0.707107     0.707107     0.000000     0.000000     0.000000
   44    -1.000000   180.000000     0.000000    -0.707107     0.707107     0.000000     0.000000     0.000000
   45     1.000000   180.000000     0.707107    -0.707107     0.000000     0.000000     0.000000     0.000000
   46    -1.000000   180.000000     0.707107    -0.707107     0.000000     0.000000     0.000000     0.000000
   47     1.000000   180.000000     0.707107     0.000000    -0.707107     0.000000     0.000000     0.000000
   48    -1.000000   180.000000     0.707107     0.000000    -0.707107     0.000000     0.000000     0.000000
 
 Subroutine IBZKPT returns following result:
 ===========================================
 
 Found     84 irreducible k-points:
 
 Following reciprocal coordinates:
            Coordinates               Weight
  0.000000  0.000000  0.000000      1.000000
  0.083333  0.000000  0.000000      6.000000
  0.166667  0.000000  0.000000      6.000000
  0.250000  0.000000  0.000000      6.000000
  0.333333  0.000000  0.000000      6.000000
  0.416667  0.000000  0.000000      6.000000
  0.500000  0.000000  0.000000      3.000000
  0.083333  0.083333  0.000000     12.000000
  0.166667  0.083333  0.000000     24.000000
  0.250000  0.083333  0.000000     24.000000
  0.333333  0.083333  0.000000     24.000000
  0.416667  0.083333  0.000000     24.000000
  0.500000  0.083333  0.000000     12.000000
  0.166667  0.166667  0.000000     12.000000
  0.250000  0.166667  0.000000     24.000000
  0.333333  0.166667  0.000000     24.000000
  0.416667  0.166667  0.000000     24.000000
  0.500000  0.166667  0.000000     12.000000
  0.250000  0.250000  0.000000     12.000000
  0.333333  0.250000  0.000000     24.000000
  0.416667  0.250000  0.000000     24.000000
  0.500000  0.250000  0.000000     12.000000
  0.333333  0.333333  0.000000     12.000000
  0.416667  0.333333  0.000000     24.000000
  0.500000  0.333333  0.000000     12.000000
  0.416667  0.416667  0.000000     12.000000
  0.500000  0.416667  0.000000     12.000000
  0.500000  0.500000  0.000000      3.000000
  0.083333  0.083333  0.083333      8.000000
  0.166667  0.083333  0.083333     24.000000
  0.250000  0.083333  0.083333     24.000000
  0.333333  0.083333  0.083333     24.000000
  0.416667  0.083333  0.083333     24.000000
  0.500000  0.083333  0.083333     12.000000
  0.166667  0.166667  0.083333     24.000000
  0.250000  0.166667  0.083333     48.000000
  0.333333  0.166667  0.083333     48.000000
  0.416667  0.166667  0.083333     48.000000
  0.500000  0.166667  0.083333     24.000000
  0.250000  0.250000  0.083333     24.000000
  0.333333  0.250000  0.083333     48.000000
  0.416667  0.250000  0.083333     48.000000
  0.500000  0.250000  0.083333     24.000000
  0.333333  0.333333  0.083333     24.000000
  0.416667  0.333333  0.083333     48.000000
  0.500000  0.333333  0.083333     24.000000
  0.416667  0.416667  0.083333     24.000000
  0.500000  0.416667  0.083333     24.000000
  0.500000  0.500000  0.083333      6.000000
  0.166667  0.166667  0.166667      8.000000
  0.250000  0.166667  0.166667     24.000000
  0.333333  0.166667  0.166667     24.000000
  0.416667  0.166667  0.166667     24.000000
  0.500000  0.166667  0.166667     12.000000
  0.250000  0.250000  0.166667     24.000000
  0.333333  0.250000  0.166667     48.000000
  0.416667  0.250000  0.166667     48.000000
  0.500000  0.250000  0.166667     24.000000
  0.333333  0.333333  0.166667     24.000000
  0.416667  0.333333  0.166667     48.000000
  0.500000  0.333333  0.166667     24.000000
  0.416667  0.416667  0.166667     24.000000
  0.500000  0.416667  0.166667     24.000000
  0.500000  0.500000  0.166667      6.000000
  0.250000  0.250000  0.250000      8.000000
  0.333333  0.250000  0.250000     24.000000
  0.416667  0.250000  0.250000     24.000000
  0.500000  0.250000  0.250000     12.000000
  0.333333  0.333333  0.250000     24.000000
  0.416667  0.333333  0.250000     48.000000
  0.500000  0.333333  0.250000     24.000000
  0.416667  0.416667  0.250000     24.000000
  0.500000  0.416667  0.250000     24.000000
  0.500000  0.500000  0.250000      6.000000
  0.333333  0.333333  0.333333      8.000000
  0.416667  0.333333  0.333333     24.000000
  0.500000  0.333333  0.333333     12.000000
  0.416667  0.416667  0.333333     24.000000
  0.500000  0.416667  0.333333     24.000000
  0.500000  0.500000  0.333333      6.000000
  0.416667  0.416667  0.416667      8.000000
  0.500000  0.416667  0.416667     12.000000
  0.500000  0.500000  0.416667      6.000000
  0.500000  0.500000  0.500000      1.000000
 
 Following cartesian coordinates:
            Coordinates               Weight
  0.000000  0.000000  0.000000      1.000000
  0.015187  0.000000  0.000000      6.000000
  0.030373  0.000000  0.000000      6.000000
  0.045560  0.000000  0.000000      6.000000
  0.060747  0.000000  0.000000      6.000000
  0.075934  0.000000  0.000000      6.000000
  0.091120  0.000000  0.000000      3.000000
  0.015187  0.015187  0.000000     12.000000
  0.030373  0.015187  0.000000     24.000000
  0.045560  0.015187  0.000000     24.000000
  0.060747  0.015187  0.000000     24.000000
  0.075934  0.015187  0.000000     24.000000
  0.091120  0.015187  0.000000     12.000000
  0.030373  0.030373  0.000000     12.000000
  0.045560  0.030373  0.000000     24.000000
  0.060747  0.030373  0.000000     24.000000
  0.075934  0.030373  0.000000     24.000000
  0.091120  0.030373  0.000000     12.000000
  0.045560  0.045560  0.000000     12.000000
  0.060747  0.045560  0.000000     24.000000
  0.075934  0.045560  0.000000     24.000000
  0.091120  0.045560  0.000000     12.000000
  0.060747  0.060747  0.000000     12.000000
  0.075934  0.060747  0.000000     24.000000
  0.091120  0.060747  0.000000     12.000000
  0.075934  0.075934  0.000000     12.000000
  0.091120  0.075934  0.000000     12.000000
  0.091120  0.091120  0.000000      3.000000
  0.015187  0.015187  0.015187      8.000000
  0.030373  0.015187  0.015187     24.000000
  0.045560  0.015187  0.015187     24.000000
  0.060747  0.015187  0.015187     24.000000
  0.075934  0.015187  0.015187     24.000000
  0.091120  0.015187  0.015187     12.000000
  0.030373  0.030373  0.015187     24.000000
  0.045560  0.030373  0.015187     48.000000
  0.060747  0.030373  0.015187     48.000000
  0.075934  0.030373  0.015187     48.000000
  0.091120  0.030373  0.015187     24.000000
  0.045560  0.045560  0.015187     24.000000
  0.060747  0.045560  0.015187     48.000000
  0.075934  0.045560  0.015187     48.000000
  0.091120  0.045560  0.015187     24.000000
  0.060747  0.060747  0.015187     24.000000
  0.075934  0.060747  0.015187     48.000000
  0.091120  0.060747  0.015187     24.000000
  0.075934  0.075934  0.015187     24.000000
  0.091120  0.075934  0.015187     24.000000
  0.091120  0.091120  0.015187      6.000000
  0.030373  0.030373  0.030373      8.000000
  0.045560  0.030373  0.030373     24.000000
  0.060747  0.030373  0.030373     24.000000
  0.075934  0.030373  0.030373     24.000000
  0.091120  0.030373  0.030373     12.000000
  0.045560  0.045560  0.030373     24.000000
  0.060747  0.045560  0.030373     48.000000
  0.075934  0.045560  0.030373     48.000000
  0.091120  0.045560  0.030373     24.000000
  0.060747  0.060747  0.030373     24.000000
  0.075934  0.060747  0.030373     48.000000
  0.091120  0.060747  0.030373     24.000000
  0.075934  0.075934  0.030373     24.000000
  0.091120  0.075934  0.030373     24.000000
  0.091120  0.091120  0.030373      6.000000
  0.045560  0.045560  0.045560      8.000000
  0.060747  0.045560  0.045560     24.000000
  0.075934  0.045560  0.045560     24.000000
  0.091120  0.045560  0.045560     12.000000
  0.060747  0.060747  0.045560     24.000000
  0.075934  0.060747  0.045560     48.000000
  0.091120  0.060747  0.045560     24.000000
  0.075934  0.075934  0.045560     24.000000
  0.091120  0.075934  0.045560     24.000000
  0.091120  0.091120  0.045560      6.000000
  0.060747  0.060747  0.060747      8.000000
  0.075934  0.060747  0.060747     24.000000
  0.091120  0.060747  0.060747     12.000000
  0.075934  0.075934  0.060747     24.000000
  0.091120  0.075934  0.060747     24.000000
  0.091120  0.091120  0.060747      6.000000
  0.075934  0.075934  0.075934      8.000000
  0.091120  0.075934  0.075934     12.000000
  0.091120  0.091120  0.075934      6.000000
  0.091120  0.091120  0.091120      1.000000
 
 
 Subroutine IBZKPT_HF returns following result:
 ==============================================
 
 Found   1728 k-points in 1st BZ
 the following   1728 k-points will be used (e.g. in the exchange kernel)
 Following reciprocal coordinates:   # in IRBZ
  0.000000  0.000000  0.000000    0.00057870   1 t-inv F
  0.083333  0.000000  0.000000    0.00057870   2 t-inv F
  0.166667  0.000000  0.000000    0.00057870   3 t-inv F
  0.250000  0.000000  0.000000    0.00057870   4 t-inv F
  0.333333  0.000000  0.000000    0.00057870   5 t-inv F
  0.416667  0.000000  0.000000    0.00057870   6 t-inv F
  0.500000  0.000000  0.000000    0.00057870   7 t-inv F
  0.083333  0.083333  0.000000    0.00057870   8 t-inv F
  0.166667  0.083333  0.000000    0.00057870   9 t-inv F
  0.250000  0.083333  0.000000    0.00057870  10 t-inv F
  0.333333  0.083333  0.000000    0.00057870  11 t-inv F
  0.416667  0.083333  0.000000    0.00057870  12 t-inv F
  0.500000  0.083333  0.000000    0.00057870  13 t-inv F
  0.166667  0.166667  0.000000    0.00057870  14 t-inv F
  0.250000  0.166667  0.000000    0.00057870  15 t-inv F
  0.333333  0.166667  0.000000    0.00057870  16 t-inv F
  0.416667  0.166667  0.000000    0.00057870  17 t-inv F
  0.500000  0.166667  0.000000    0.00057870  18 t-inv F
  0.250000  0.250000  0.000000    0.00057870  19 t-inv F
  0.333333  0.250000  0.000000    0.00057870  20 t-inv F
  0.416667  0.250000  0.000000    0.00057870  21 t-inv F
  0.500000  0.250000  0.000000    0.00057870  22 t-inv F
  0.333333  0.333333  0.000000    0.00057870  23 t-inv F
  0.416667  0.333333  0.000000    0.00057870  24 t-inv F
  0.500000  0.333333  0.000000    0.00057870  25 t-inv F
  0.416667  0.416667  0.000000    0.00057870  26 t-inv F
  0.500000  0.416667  0.000000    0.00057870  27 t-inv F
  0.500000  0.500000  0.000000    0.00057870  28 t-inv F
  0.083333  0.083333  0.083333    0.00057870  29 t-inv F
  0.166667  0.083333  0.083333    0.00057870  30 t-inv F
  0.250000  0.083333  0.083333    0.00057870  31 t-inv F
  0.333333  0.083333  0.083333    0.00057870  32 t-inv F
  0.416667  0.083333  0.083333    0.00057870  33 t-inv F
  0.500000  0.083333  0.083333    0.00057870  34 t-inv F
  0.166667  0.166667  0.083333    0.00057870  35 t-inv F
  0.250000  0.166667  0.083333    0.00057870  36 t-inv F
  0.333333  0.166667  0.083333    0.00057870  37 t-inv F
  0.416667  0.166667  0.083333    0.00057870  38 t-inv F
  0.500000  0.166667  0.083333    0.00057870  39 t-inv F
  0.250000  0.250000  0.083333    0.00057870  40 t-inv F
  0.333333  0.250000  0.083333    0.00057870  41 t-inv F
  0.416667  0.250000  0.083333    0.00057870  42 t-inv F
  0.500000  0.250000  0.083333    0.00057870  43 t-inv F
  0.333333  0.333333  0.083333    0.00057870  44 t-inv F
  0.416667  0.333333  0.083333    0.00057870  45 t-inv F
  0.500000  0.333333  0.083333    0.00057870  46 t-inv F
  0.416667  0.416667  0.083333    0.00057870  47 t-inv F
  0.500000  0.416667  0.083333    0.00057870  48 t-inv F
  0.500000  0.500000  0.083333    0.00057870  49 t-inv F
  0.166667  0.166667  0.166667    0.00057870  50 t-inv F
  0.250000  0.166667  0.166667    0.00057870  51 t-inv F
  0.333333  0.166667  0.166667    0.00057870  52 t-inv F
  0.416667  0.166667  0.166667    0.00057870  53 t-inv F
  0.500000  0.166667  0.166667    0.00057870  54 t-inv F
  0.250000  0.250000  0.166667    0.00057870  55 t-inv F
  0.333333  0.250000  0.166667    0.00057870  56 t-inv F
  0.416667  0.250000  0.166667    0.00057870  57 t-inv F
  0.500000  0.250000  0.166667    0.00057870  58 t-inv F
  0.333333  0.333333  0.166667    0.00057870  59 t-inv F
  0.416667  0.333333  0.166667    0.00057870  60 t-inv F
  0.500000  0.333333  0.166667    0.00057870  61 t-inv F
  0.416667  0.416667  0.166667    0.00057870  62 t-inv F
  0.500000  0.416667  0.166667    0.00057870  63 t-inv F
  0.500000  0.500000  0.166667    0.00057870  64 t-inv F
  0.250000  0.250000  0.250000    0.00057870  65 t-inv F
  0.333333  0.250000  0.250000    0.00057870  66 t-inv F
  0.416667  0.250000  0.250000    0.00057870  67 t-inv F
  0.500000  0.250000  0.250000    0.00057870  68 t-inv F
  0.333333  0.333333  0.250000    0.00057870  69 t-inv F
  0.416667  0.333333  0.250000    0.00057870  70 t-inv F
  0.500000  0.333333  0.250000    0.00057870  71 t-inv F
  0.416667  0.416667  0.250000    0.00057870  72 t-inv F
  0.500000  0.416667  0.250000    0.00057870  73 t-inv F
  0.500000  0.500000  0.250000    0.00057870  74 t-inv F
  0.333333  0.333333  0.333333    0.00057870  75 t-inv F
  0.416667  0.333333  0.333333    0.00057870  76 t-inv F
  0.500000  0.333333  0.333333    0.00057870  77 t-inv F
  0.416667  0.416667  0.333333    0.00057870  78 t-inv F
  0.500000  0.416667  0.333333    0.00057870  79 t-inv F
  0.500000  0.500000  0.333333    0.00057870  80 t-inv F
  0.416667  0.416667  0.416667    0.00057870  81 t-inv F
  0.500000  0.416667  0.416667    0.00057870  82 t-inv F
  0.500000  0.500000  0.416667    0.00057870  83 t-inv F
  0.500000  0.500000  0.500000    0.00057870  84 t-inv F
 -0.083333  0.000000  0.000000    0.00057870   2 t-inv F
  0.000000  0.083333  0.000000    0.00057870   2 t-inv F
  0.000000 -0.083333  0.000000    0.00057870   2 t-inv F
  0.000000  0.000000  0.083333    0.00057870   2 t-inv F
  0.000000  0.000000 -0.083333    0.00057870   2 t-inv F
 -0.166667  0.000000  0.000000    0.00057870   3 t-inv F
  0.000000  0.166667  0.000000    0.00057870   3 t-inv F
  0.000000 -0.166667  0.000000    0.00057870   3 t-inv F
  0.000000  0.000000  0.166667    0.00057870   3 t-inv F
  0.000000  0.000000 -0.166667    0.00057870   3 t-inv F
 -0.250000  0.000000  0.000000    0.00057870   4 t-inv F
  0.000000  0.250000  0.000000    0.00057870   4 t-inv F
  0.000000 -0.250000  0.000000    0.00057870   4 t-inv F
  0.000000  0.000000  0.250000    0.00057870   4 t-inv F
  0.000000  0.000000 -0.250000    0.00057870   4 t-inv F
 -0.333333  0.000000  0.000000    0.00057870   5 t-inv F
  0.000000  0.333333  0.000000    0.00057870   5 t-inv F
  0.000000 -0.333333  0.000000    0.00057870   5 t-inv F
  0.000000  0.000000  0.333333    0.00057870   5 t-inv F
  0.000000  0.000000 -0.333333    0.00057870   5 t-inv F
 -0.416667  0.000000  0.000000    0.00057870   6 t-inv F
  0.000000  0.416667  0.000000    0.00057870   6 t-inv F
  0.000000 -0.416667  0.000000    0.00057870   6 t-inv F
  0.000000  0.000000  0.416667    0.00057870   6 t-inv F
  0.000000  0.000000 -0.416667    0.00057870   6 t-inv F
  0.000000  0.500000  0.000000    0.00057870   7 t-inv F
  0.000000  0.000000  0.500000    0.00057870   7 t-inv F
 -0.083333 -0.083333  0.000000    0.00057870   8 t-inv F
  0.000000  0.083333  0.083333    0.00057870   8 t-inv F
  0.000000 -0.083333 -0.083333    0.00057870   8 t-inv F
  0.083333  0.000000  0.083333    0.00057870   8 t-inv F
 -0.083333  0.000000 -0.083333    0.00057870   8 t-inv F
 -0.083333  0.083333  0.000000    0.00057870   8 t-inv F
  0.083333 -0.083333  0.000000    0.00057870   8 t-inv F
 -0.083333  0.000000  0.083333    0.00057870   8 t-inv F
  0.083333  0.000000 -0.083333    0.00057870   8 t-inv F
  0.000000 -0.083333  0.083333    0.00057870   8 t-inv F
  0.000000  0.083333 -0.083333    0.00057870   8 t-inv F
 -0.166667 -0.083333  0.000000    0.00057870   9 t-inv F
  0.000000  0.166667  0.083333    0.00057870   9 t-inv F
  0.000000 -0.166667 -0.083333    0.00057870   9 t-inv F
  0.083333  0.000000  0.166667    0.00057870   9 t-inv F
 -0.083333  0.000000 -0.166667    0.00057870   9 t-inv F
 -0.083333  0.166667  0.000000    0.00057870   9 t-inv F
  0.083333 -0.166667  0.000000    0.00057870   9 t-inv F
 -0.166667  0.000000  0.083333    0.00057870   9 t-inv F
  0.166667  0.000000 -0.083333    0.00057870   9 t-inv F
  0.000000  0.083333  0.166667    0.00057870   9 t-inv F
  0.000000 -0.083333 -0.166667    0.00057870   9 t-inv F
  0.000000 -0.166667  0.083333    0.00057870   9 t-inv F
  0.000000  0.166667 -0.083333    0.00057870   9 t-inv F
 -0.083333  0.000000  0.166667    0.00057870   9 t-inv F
  0.083333  0.000000 -0.166667    0.00057870   9 t-inv F
  0.166667  0.000000  0.083333    0.00057870   9 t-inv F
 -0.166667  0.000000 -0.083333    0.00057870   9 t-inv F
  0.000000 -0.083333  0.166667    0.00057870   9 t-inv F
  0.000000  0.083333 -0.166667    0.00057870   9 t-inv F
  0.166667 -0.083333  0.000000    0.00057870   9 t-inv F
 -0.166667  0.083333  0.000000    0.00057870   9 t-inv F
  0.083333  0.166667  0.000000    0.00057870   9 t-inv F
 -0.083333 -0.166667  0.000000    0.00057870   9 t-inv F
 -0.250000 -0.083333  0.000000    0.00057870  10 t-inv F
  0.000000  0.250000  0.083333    0.00057870  10 t-inv F
  0.000000 -0.250000 -0.083333    0.00057870  10 t-inv F
  0.083333  0.000000  0.250000    0.00057870  10 t-inv F
 -0.083333  0.000000 -0.250000    0.00057870  10 t-inv F
 -0.083333  0.250000  0.000000    0.00057870  10 t-inv F
  0.083333 -0.250000  0.000000    0.00057870  10 t-inv F
 -0.250000  0.000000  0.083333    0.00057870  10 t-inv F
  0.250000  0.000000 -0.083333    0.00057870  10 t-inv F
  0.000000  0.083333  0.250000    0.00057870  10 t-inv F
  0.000000 -0.083333 -0.250000    0.00057870  10 t-inv F
  0.000000 -0.250000  0.083333    0.00057870  10 t-inv F
  0.000000  0.250000 -0.083333    0.00057870  10 t-inv F
 -0.083333  0.000000  0.250000    0.00057870  10 t-inv F
  0.083333  0.000000 -0.250000    0.00057870  10 t-inv F
  0.250000  0.000000  0.083333    0.00057870  10 t-inv F
 -0.250000  0.000000 -0.083333    0.00057870  10 t-inv F
  0.000000 -0.083333  0.250000    0.00057870  10 t-inv F
  0.000000  0.083333 -0.250000    0.00057870  10 t-inv F
  0.250000 -0.083333  0.000000    0.00057870  10 t-inv F
 -0.250000  0.083333  0.000000    0.00057870  10 t-inv F
  0.083333  0.250000  0.000000    0.00057870  10 t-inv F
 -0.083333 -0.250000  0.000000    0.00057870  10 t-inv F
 -0.333333 -0.083333  0.000000    0.00057870  11 t-inv F
  0.000000  0.333333  0.083333    0.00057870  11 t-inv F
  0.000000 -0.333333 -0.083333    0.00057870  11 t-inv F
  0.083333  0.000000  0.333333    0.00057870  11 t-inv F
 -0.083333  0.000000 -0.333333    0.00057870  11 t-inv F
 -0.083333  0.333333  0.000000    0.00057870  11 t-inv F
  0.083333 -0.333333  0.000000    0.00057870  11 t-inv F
 -0.333333  0.000000  0.083333    0.00057870  11 t-inv F
  0.333333  0.000000 -0.083333    0.00057870  11 t-inv F
  0.000000  0.083333  0.333333    0.00057870  11 t-inv F
  0.000000 -0.083333 -0.333333    0.00057870  11 t-inv F
  0.000000 -0.333333  0.083333    0.00057870  11 t-inv F
  0.000000  0.333333 -0.083333    0.00057870  11 t-inv F
 -0.083333  0.000000  0.333333    0.00057870  11 t-inv F
  0.083333  0.000000 -0.333333    0.00057870  11 t-inv F
  0.333333  0.000000  0.083333    0.00057870  11 t-inv F
 -0.333333  0.000000 -0.083333    0.00057870  11 t-inv F
  0.000000 -0.083333  0.333333    0.00057870  11 t-inv F
  0.000000  0.083333 -0.333333    0.00057870  11 t-inv F
  0.333333 -0.083333  0.000000    0.00057870  11 t-inv F
 -0.333333  0.083333  0.000000    0.00057870  11 t-inv F
  0.083333  0.333333  0.000000    0.00057870  11 t-inv F
 -0.083333 -0.333333  0.000000    0.00057870  11 t-inv F
 -0.416667 -0.083333  0.000000    0.00057870  12 t-inv F
  0.000000  0.416667  0.083333    0.00057870  12 t-inv F
  0.000000 -0.416667 -0.083333    0.00057870  12 t-inv F
  0.083333  0.000000  0.416667    0.00057870  12 t-inv F
 -0.083333  0.000000 -0.416667    0.00057870  12 t-inv F
 -0.083333  0.416667  0.000000    0.00057870  12 t-inv F
  0.083333 -0.416667  0.000000    0.00057870  12 t-inv F
 -0.416667  0.000000  0.083333    0.00057870  12 t-inv F
  0.416667  0.000000 -0.083333    0.00057870  12 t-inv F
  0.000000  0.083333  0.416667    0.00057870  12 t-inv F
  0.000000 -0.083333 -0.416667    0.00057870  12 t-inv F
  0.000000 -0.416667  0.083333    0.00057870  12 t-inv F
  0.000000  0.416667 -0.083333    0.00057870  12 t-inv F
 -0.083333  0.000000  0.416667    0.00057870  12 t-inv F
  0.083333  0.000000 -0.416667    0.00057870  12 t-inv F
  0.416667  0.000000  0.083333    0.00057870  12 t-inv F
 -0.416667  0.000000 -0.083333    0.00057870  12 t-inv F
  0.000000 -0.083333  0.416667    0.00057870  12 t-inv F
  0.000000  0.083333 -0.416667    0.00057870  12 t-inv F
  0.416667 -0.083333  0.000000    0.00057870  12 t-inv F
 -0.416667  0.083333  0.000000    0.00057870  12 t-inv F
  0.083333  0.416667  0.000000    0.00057870  12 t-inv F
 -0.083333 -0.416667  0.000000    0.00057870  12 t-inv F
 -0.500000 -0.083333  0.000000    0.00057870  13 t-inv F
  0.000000  0.500000  0.083333    0.00057870  13 t-inv F
  0.000000 -0.500000 -0.083333    0.00057870  13 t-inv F
  0.083333  0.000000  0.500000    0.00057870  13 t-inv F
 -0.083333  0.000000 -0.500000    0.00057870  13 t-inv F
 -0.083333  0.500000  0.000000    0.00057870  13 t-inv F
  0.083333 -0.500000  0.000000    0.00057870  13 t-inv F
 -0.500000  0.000000  0.083333    0.00057870  13 t-inv F
  0.500000  0.000000 -0.083333    0.00057870  13 t-inv F
  0.000000  0.083333  0.500000    0.00057870  13 t-inv F
  0.000000 -0.083333 -0.500000    0.00057870  13 t-inv F
 -0.166667 -0.166667  0.000000    0.00057870  14 t-inv F
  0.000000  0.166667  0.166667    0.00057870  14 t-inv F
  0.000000 -0.166667 -0.166667    0.00057870  14 t-inv F
  0.166667  0.000000  0.166667    0.00057870  14 t-inv F
 -0.166667  0.000000 -0.166667    0.00057870  14 t-inv F
 -0.166667  0.166667  0.000000    0.00057870  14 t-inv F
  0.166667 -0.166667  0.000000    0.00057870  14 t-inv F
 -0.166667  0.000000  0.166667    0.00057870  14 t-inv F
  0.166667  0.000000 -0.166667    0.00057870  14 t-inv F
  0.000000 -0.166667  0.166667    0.00057870  14 t-inv F
  0.000000  0.166667 -0.166667    0.00057870  14 t-inv F
 -0.250000 -0.166667  0.000000    0.00057870  15 t-inv F
  0.000000  0.250000  0.166667    0.00057870  15 t-inv F
  0.000000 -0.250000 -0.166667    0.00057870  15 t-inv F
  0.166667  0.000000  0.250000    0.00057870  15 t-inv F
 -0.166667  0.000000 -0.250000    0.00057870  15 t-inv F
 -0.166667  0.250000  0.000000    0.00057870  15 t-inv F
  0.166667 -0.250000  0.000000    0.00057870  15 t-inv F
 -0.250000  0.000000  0.166667    0.00057870  15 t-inv F
  0.250000  0.000000 -0.166667    0.00057870  15 t-inv F
  0.000000  0.166667  0.250000    0.00057870  15 t-inv F
  0.000000 -0.166667 -0.250000    0.00057870  15 t-inv F
  0.000000 -0.250000  0.166667    0.00057870  15 t-inv F
  0.000000  0.250000 -0.166667    0.00057870  15 t-inv F
 -0.166667  0.000000  0.250000    0.00057870  15 t-inv F
  0.166667  0.000000 -0.250000    0.00057870  15 t-inv F
  0.250000  0.000000  0.166667    0.00057870  15 t-inv F
 -0.250000  0.000000 -0.166667    0.00057870  15 t-inv F
  0.000000 -0.166667  0.250000    0.00057870  15 t-inv F
  0.000000  0.166667 -0.250000    0.00057870  15 t-inv F
  0.250000 -0.166667  0.000000    0.00057870  15 t-inv F
 -0.250000  0.166667  0.000000    0.00057870  15 t-inv F
  0.166667  0.250000  0.000000    0.00057870  15 t-inv F
 -0.166667 -0.250000  0.000000    0.00057870  15 t-inv F
 -0.333333 -0.166667  0.000000    0.00057870  16 t-inv F
  0.000000  0.333333  0.166667    0.00057870  16 t-inv F
  0.000000 -0.333333 -0.166667    0.00057870  16 t-inv F
  0.166667  0.000000  0.333333    0.00057870  16 t-inv F
 -0.166667  0.000000 -0.333333    0.00057870  16 t-inv F
 -0.166667  0.333333  0.000000    0.00057870  16 t-inv F
  0.166667 -0.333333  0.000000    0.00057870  16 t-inv F
 -0.333333  0.000000  0.166667    0.00057870  16 t-inv F
  0.333333  0.000000 -0.166667    0.00057870  16 t-inv F
  0.000000  0.166667  0.333333    0.00057870  16 t-inv F
  0.000000 -0.166667 -0.333333    0.00057870  16 t-inv F
  0.000000 -0.333333  0.166667    0.00057870  16 t-inv F
  0.000000  0.333333 -0.166667    0.00057870  16 t-inv F
 -0.166667  0.000000  0.333333    0.00057870  16 t-inv F
  0.166667  0.000000 -0.333333    0.00057870  16 t-inv F
  0.333333  0.000000  0.166667    0.00057870  16 t-inv F
 -0.333333  0.000000 -0.166667    0.00057870  16 t-inv F
  0.000000 -0.166667  0.333333    0.00057870  16 t-inv F
  0.000000  0.166667 -0.333333    0.00057870  16 t-inv F
  0.333333 -0.166667  0.000000    0.00057870  16 t-inv F
 -0.333333  0.166667  0.000000    0.00057870  16 t-inv F
  0.166667  0.333333  0.000000    0.00057870  16 t-inv F
 -0.166667 -0.333333  0.000000    0.00057870  16 t-inv F
 -0.416667 -0.166667  0.000000    0.00057870  17 t-inv F
  0.000000  0.416667  0.166667    0.00057870  17 t-inv F
  0.000000 -0.416667 -0.166667    0.00057870  17 t-inv F
  0.166667  0.000000  0.416667    0.00057870  17 t-inv F
 -0.166667  0.000000 -0.416667    0.00057870  17 t-inv F
 -0.166667  0.416667  0.000000    0.00057870  17 t-inv F
  0.166667 -0.416667  0.000000    0.00057870  17 t-inv F
 -0.416667  0.000000  0.166667    0.00057870  17 t-inv F
  0.416667  0.000000 -0.166667    0.00057870  17 t-inv F
  0.000000  0.166667  0.416667    0.00057870  17 t-inv F
  0.000000 -0.166667 -0.416667    0.00057870  17 t-inv F
  0.000000 -0.416667  0.166667    0.00057870  17 t-inv F
  0.000000  0.416667 -0.166667    0.00057870  17 t-inv F
 -0.166667  0.000000  0.416667    0.00057870  17 t-inv F
  0.166667  0.000000 -0.416667    0.00057870  17 t-inv F
  0.416667  0.000000  0.166667    0.00057870  17 t-inv F
 -0.416667  0.000000 -0.166667    0.00057870  17 t-inv F
  0.000000 -0.166667  0.416667    0.00057870  17 t-inv F
  0.000000  0.166667 -0.416667    0.00057870  17 t-inv F
  0.416667 -0.166667  0.000000    0.00057870  17 t-inv F
 -0.416667  0.166667  0.000000    0.00057870  17 t-inv F
  0.166667  0.416667  0.000000    0.00057870  17 t-inv F
 -0.166667 -0.416667  0.000000    0.00057870  17 t-inv F
 -0.500000 -0.166667  0.000000    0.00057870  18 t-inv F
  0.000000  0.500000  0.166667    0.00057870  18 t-inv F
  0.000000 -0.500000 -0.166667    0.00057870  18 t-inv F
  0.166667  0.000000  0.500000    0.00057870  18 t-inv F
 -0.166667  0.000000 -0.500000    0.00057870  18 t-inv F
 -0.166667  0.500000  0.000000    0.00057870  18 t-inv F
  0.166667 -0.500000  0.000000    0.00057870  18 t-inv F
 -0.500000  0.000000  0.166667    0.00057870  18 t-inv F
  0.500000  0.000000 -0.166667    0.00057870  18 t-inv F
  0.000000  0.166667  0.500000    0.00057870  18 t-inv F
  0.000000 -0.166667 -0.500000    0.00057870  18 t-inv F
 -0.250000 -0.250000  0.000000    0.00057870  19 t-inv F
  0.000000  0.250000  0.250000    0.00057870  19 t-inv F
  0.000000 -0.250000 -0.250000    0.00057870  19 t-inv F
  0.250000  0.000000  0.250000    0.00057870  19 t-inv F
 -0.250000  0.000000 -0.250000    0.00057870  19 t-inv F
 -0.250000  0.250000  0.000000    0.00057870  19 t-inv F
  0.250000 -0.250000  0.000000    0.00057870  19 t-inv F
 -0.250000  0.000000  0.250000    0.00057870  19 t-inv F
  0.250000  0.000000 -0.250000    0.00057870  19 t-inv F
  0.000000 -0.250000  0.250000    0.00057870  19 t-inv F
  0.000000  0.250000 -0.250000    0.00057870  19 t-inv F
 -0.333333 -0.250000  0.000000    0.00057870  20 t-inv F
  0.000000  0.333333  0.250000    0.00057870  20 t-inv F
  0.000000 -0.333333 -0.250000    0.00057870  20 t-inv F
  0.250000  0.000000  0.333333    0.00057870  20 t-inv F
 -0.250000  0.000000 -0.333333    0.00057870  20 t-inv F
 -0.250000  0.333333  0.000000    0.00057870  20 t-inv F
  0.250000 -0.333333  0.000000    0.00057870  20 t-inv F
 -0.333333  0.000000  0.250000    0.00057870  20 t-inv F
  0.333333  0.000000 -0.250000    0.00057870  20 t-inv F
  0.000000  0.250000  0.333333    0.00057870  20 t-inv F
  0.000000 -0.250000 -0.333333    0.00057870  20 t-inv F
  0.000000 -0.333333  0.250000    0.00057870  20 t-inv F
  0.000000  0.333333 -0.250000    0.00057870  20 t-inv F
 -0.250000  0.000000  0.333333    0.00057870  20 t-inv F
  0.250000  0.000000 -0.333333    0.00057870  20 t-inv F
  0.333333  0.000000  0.250000    0.00057870  20 t-inv F
 -0.333333  0.000000 -0.250000    0.00057870  20 t-inv F
  0.000000 -0.250000  0.333333    0.00057870  20 t-inv F
  0.000000  0.250000 -0.333333    0.00057870  20 t-inv F
  0.333333 -0.250000  0.000000    0.00057870  20 t-inv F
 -0.333333  0.250000  0.000000    0.00057870  20 t-inv F
  0.250000  0.333333  0.000000    0.00057870  20 t-inv F
 -0.250000 -0.333333  0.000000    0.00057870  20 t-inv F
 -0.416667 -0.250000  0.000000    0.00057870  21 t-inv F
  0.000000  0.416667  0.250000    0.00057870  21 t-inv F
  0.000000 -0.416667 -0.250000    0.00057870  21 t-inv F
  0.250000  0.000000  0.416667    0.00057870  21 t-inv F
 -0.250000  0.000000 -0.416667    0.00057870  21 t-inv F
 -0.250000  0.416667  0.000000    0.00057870  21 t-inv F
  0.250000 -0.416667  0.000000    0.00057870  21 t-inv F
 -0.416667  0.000000  0.250000    0.00057870  21 t-inv F
  0.416667  0.000000 -0.250000    0.00057870  21 t-inv F
  0.000000  0.250000  0.416667    0.00057870  21 t-inv F
  0.000000 -0.250000 -0.416667    0.00057870  21 t-inv F
  0.000000 -0.416667  0.250000    0.00057870  21 t-inv F
  0.000000  0.416667 -0.250000    0.00057870  21 t-inv F
 -0.250000  0.000000  0.416667    0.00057870  21 t-inv F
  0.250000  0.000000 -0.416667    0.00057870  21 t-inv F
  0.416667  0.000000  0.250000    0.00057870  21 t-inv F
 -0.416667  0.000000 -0.250000    0.00057870  21 t-inv F
  0.000000 -0.250000  0.416667    0.00057870  21 t-inv F
  0.000000  0.250000 -0.416667    0.00057870  21 t-inv F
  0.416667 -0.250000  0.000000    0.00057870  21 t-inv F
 -0.416667  0.250000  0.000000    0.00057870  21 t-inv F
  0.250000  0.416667  0.000000    0.00057870  21 t-inv F
 -0.250000 -0.416667  0.000000    0.00057870  21 t-inv F
 -0.500000 -0.250000  0.000000    0.00057870  22 t-inv F
  0.000000  0.500000  0.250000    0.00057870  22 t-inv F
  0.000000 -0.500000 -0.250000    0.00057870  22 t-inv F
  0.250000  0.000000  0.500000    0.00057870  22 t-inv F
 -0.250000  0.000000 -0.500000    0.00057870  22 t-inv F
 -0.250000  0.500000  0.000000    0.00057870  22 t-inv F
  0.250000 -0.500000  0.000000    0.00057870  22 t-inv F
 -0.500000  0.000000  0.250000    0.00057870  22 t-inv F
  0.500000  0.000000 -0.250000    0.00057870  22 t-inv F
  0.000000  0.250000  0.500000    0.00057870  22 t-inv F
  0.000000 -0.250000 -0.500000    0.00057870  22 t-inv F
 -0.333333 -0.333333  0.000000    0.00057870  23 t-inv F
  0.000000  0.333333  0.333333    0.00057870  23 t-inv F
  0.000000 -0.333333 -0.333333    0.00057870  23 t-inv F
  0.333333  0.000000  0.333333    0.00057870  23 t-inv F
 -0.333333  0.000000 -0.333333    0.00057870  23 t-inv F
 -0.333333  0.333333  0.000000    0.00057870  23 t-inv F
  0.333333 -0.333333  0.000000    0.00057870  23 t-inv F
 -0.333333  0.000000  0.333333    0.00057870  23 t-inv F
  0.333333  0.000000 -0.333333    0.00057870  23 t-inv F
  0.000000 -0.333333  0.333333    0.00057870  23 t-inv F
  0.000000  0.333333 -0.333333    0.00057870  23 t-inv F
 -0.416667 -0.333333  0.000000    0.00057870  24 t-inv F
  0.000000  0.416667  0.333333    0.00057870  24 t-inv F
  0.000000 -0.416667 -0.333333    0.00057870  24 t-inv F
  0.333333  0.000000  0.416667    0.00057870  24 t-inv F
 -0.333333  0.000000 -0.416667    0.00057870  24 t-inv F
 -0.333333  0.416667  0.000000    0.00057870  24 t-inv F
  0.333333 -0.416667  0.000000    0.00057870  24 t-inv F
 -0.416667  0.000000  0.333333    0.00057870  24 t-inv F
  0.416667  0.000000 -0.333333    0.00057870  24 t-inv F
  0.000000  0.333333  0.416667    0.00057870  24 t-inv F
  0.000000 -0.333333 -0.416667    0.00057870  24 t-inv F
  0.000000 -0.416667  0.333333    0.00057870  24 t-inv F
  0.000000  0.416667 -0.333333    0.00057870  24 t-inv F
 -0.333333  0.000000  0.416667    0.00057870  24 t-inv F
  0.333333  0.000000 -0.416667    0.00057870  24 t-inv F
  0.416667  0.000000  0.333333    0.00057870  24 t-inv F
 -0.416667  0.000000 -0.333333    0.00057870  24 t-inv F
  0.000000 -0.333333  0.416667    0.00057870  24 t-inv F
  0.000000  0.333333 -0.416667    0.00057870  24 t-inv F
  0.416667 -0.333333  0.000000    0.00057870  24 t-inv F
 -0.416667  0.333333  0.000000    0.00057870  24 t-inv F
  0.333333  0.416667  0.000000    0.00057870  24 t-inv F
 -0.333333 -0.416667  0.000000    0.00057870  24 t-inv F
 -0.500000 -0.333333  0.000000    0.00057870  25 t-inv F
  0.000000  0.500000  0.333333    0.00057870  25 t-inv F
  0.000000 -0.500000 -0.333333    0.00057870  25 t-inv F
  0.333333  0.000000  0.500000    0.00057870  25 t-inv F
 -0.333333  0.000000 -0.500000    0.00057870  25 t-inv F
 -0.333333  0.500000  0.000000    0.00057870  25 t-inv F
  0.333333 -0.500000  0.000000    0.00057870  25 t-inv F
 -0.500000  0.000000  0.333333    0.00057870  25 t-inv F
  0.500000  0.000000 -0.333333    0.00057870  25 t-inv F
  0.000000  0.333333  0.500000    0.00057870  25 t-inv F
  0.000000 -0.333333 -0.500000    0.00057870  25 t-inv F
 -0.416667 -0.416667  0.000000    0.00057870  26 t-inv F
  0.000000  0.416667  0.416667    0.00057870  26 t-inv F
  0.000000 -0.416667 -0.416667    0.00057870  26 t-inv F
  0.416667  0.000000  0.416667    0.00057870  26 t-inv F
 -0.416667  0.000000 -0.416667    0.00057870  26 t-inv F
 -0.416667  0.416667  0.000000    0.00057870  26 t-inv F
  0.416667 -0.416667  0.000000    0.00057870  26 t-inv F
 -0.416667  0.000000  0.416667    0.00057870  26 t-inv F
  0.416667  0.000000 -0.416667    0.00057870  26 t-inv F
  0.000000 -0.416667  0.416667    0.00057870  26 t-inv F
  0.000000  0.416667 -0.416667    0.00057870  26 t-inv F
 -0.500000 -0.416667  0.000000    0.00057870  27 t-inv F
  0.000000  0.500000  0.416667    0.00057870  27 t-inv F
  0.000000 -0.500000 -0.416667    0.00057870  27 t-inv F
  0.416667  0.000000  0.500000    0.00057870  27 t-inv F
 -0.416667  0.000000 -0.500000    0.00057870  27 t-inv F
 -0.416667  0.500000  0.000000    0.00057870  27 t-inv F
  0.416667 -0.500000  0.000000    0.00057870  27 t-inv F
 -0.500000  0.000000  0.416667    0.00057870  27 t-inv F
  0.500000  0.000000 -0.416667    0.00057870  27 t-inv F
  0.000000  0.416667  0.500000    0.00057870  27 t-inv F
  0.000000 -0.416667 -0.500000    0.00057870  27 t-inv F
  0.000000  0.500000  0.500000    0.00057870  28 t-inv F
  0.500000  0.000000  0.500000    0.00057870  28 t-inv F
 -0.083333 -0.083333 -0.083333    0.00057870  29 t-inv F
 -0.083333  0.083333  0.083333    0.00057870  29 t-inv F
  0.083333 -0.083333 -0.083333    0.00057870  29 t-inv F
 -0.083333 -0.083333  0.083333    0.00057870  29 t-inv F
  0.083333  0.083333 -0.083333    0.00057870  29 t-inv F
  0.083333 -0.083333  0.083333    0.00057870  29 t-inv F
 -0.083333  0.083333 -0.083333    0.00057870  29 t-inv F
 -0.166667 -0.083333 -0.083333    0.00057870  30 t-inv F
  0.083333  0.166667  0.083333    0.00057870  30 t-inv F
 -0.083333 -0.166667 -0.083333    0.00057870  30 t-inv F
  0.083333  0.083333  0.166667    0.00057870  30 t-inv F
 -0.083333 -0.083333 -0.166667    0.00057870  30 t-inv F
 -0.083333  0.166667  0.083333    0.00057870  30 t-inv F
  0.083333 -0.166667 -0.083333    0.00057870  30 t-inv F
 -0.166667  0.083333  0.083333    0.00057870  30 t-inv F
  0.166667 -0.083333 -0.083333    0.00057870  30 t-inv F
 -0.083333  0.083333  0.166667    0.00057870  30 t-inv F
  0.083333 -0.083333 -0.166667    0.00057870  30 t-inv F
 -0.166667 -0.083333  0.083333    0.00057870  30 t-inv F
  0.166667  0.083333 -0.083333    0.00057870  30 t-inv F
 -0.083333 -0.166667  0.083333    0.00057870  30 t-inv F
  0.083333  0.166667 -0.083333    0.00057870  30 t-inv F
 -0.083333 -0.083333  0.166667    0.00057870  30 t-inv F
  0.083333  0.083333 -0.166667    0.00057870  30 t-inv F
  0.083333 -0.166667  0.083333    0.00057870  30 t-inv F
 -0.083333  0.166667 -0.083333    0.00057870  30 t-inv F
  0.166667 -0.083333  0.083333    0.00057870  30 t-inv F
 -0.166667  0.083333 -0.083333    0.00057870  30 t-inv F
  0.083333 -0.083333  0.166667    0.00057870  30 t-inv F
 -0.083333  0.083333 -0.166667    0.00057870  30 t-inv F
 -0.250000 -0.083333 -0.083333    0.00057870  31 t-inv F
  0.083333  0.250000  0.083333    0.00057870  31 t-inv F
 -0.083333 -0.250000 -0.083333    0.00057870  31 t-inv F
  0.083333  0.083333  0.250000    0.00057870  31 t-inv F
 -0.083333 -0.083333 -0.250000    0.00057870  31 t-inv F
 -0.083333  0.250000  0.083333    0.00057870  31 t-inv F
  0.083333 -0.250000 -0.083333    0.00057870  31 t-inv F
 -0.250000  0.083333  0.083333    0.00057870  31 t-inv F
  0.250000 -0.083333 -0.083333    0.00057870  31 t-inv F
 -0.083333  0.083333  0.250000    0.00057870  31 t-inv F
  0.083333 -0.083333 -0.250000    0.00057870  31 t-inv F
 -0.250000 -0.083333  0.083333    0.00057870  31 t-inv F
  0.250000  0.083333 -0.083333    0.00057870  31 t-inv F
 -0.083333 -0.250000  0.083333    0.00057870  31 t-inv F
  0.083333  0.250000 -0.083333    0.00057870  31 t-inv F
 -0.083333 -0.083333  0.250000    0.00057870  31 t-inv F
  0.083333  0.083333 -0.250000    0.00057870  31 t-inv F
  0.083333 -0.250000  0.083333    0.00057870  31 t-inv F
 -0.083333  0.250000 -0.083333    0.00057870  31 t-inv F
  0.250000 -0.083333  0.083333    0.00057870  31 t-inv F
 -0.250000  0.083333 -0.083333    0.00057870  31 t-inv F
  0.083333 -0.083333  0.250000    0.00057870  31 t-inv F
 -0.083333  0.083333 -0.250000    0.00057870  31 t-inv F
 -0.333333 -0.083333 -0.083333    0.00057870  32 t-inv F
  0.083333  0.333333  0.083333    0.00057870  32 t-inv F
 -0.083333 -0.333333 -0.083333    0.00057870  32 t-inv F
  0.083333  0.083333  0.333333    0.00057870  32 t-inv F
 -0.083333 -0.083333 -0.333333    0.00057870  32 t-inv F
 -0.083333  0.333333  0.083333    0.00057870  32 t-inv F
  0.083333 -0.333333 -0.083333    0.00057870  32 t-inv F
 -0.333333  0.083333  0.083333    0.00057870  32 t-inv F
  0.333333 -0.083333 -0.083333    0.00057870  32 t-inv F
 -0.083333  0.083333  0.333333    0.00057870  32 t-inv F
  0.083333 -0.083333 -0.333333    0.00057870  32 t-inv F
 -0.333333 -0.083333  0.083333    0.00057870  32 t-inv F
  0.333333  0.083333 -0.083333    0.00057870  32 t-inv F
 -0.083333 -0.333333  0.083333    0.00057870  32 t-inv F
  0.083333  0.333333 -0.083333    0.00057870  32 t-inv F
 -0.083333 -0.083333  0.333333    0.00057870  32 t-inv F
  0.083333  0.083333 -0.333333    0.00057870  32 t-inv F
  0.083333 -0.333333  0.083333    0.00057870  32 t-inv F
 -0.083333  0.333333 -0.083333    0.00057870  32 t-inv F
  0.333333 -0.083333  0.083333    0.00057870  32 t-inv F
 -0.333333  0.083333 -0.083333    0.00057870  32 t-inv F
  0.083333 -0.083333  0.333333    0.00057870  32 t-inv F
 -0.083333  0.083333 -0.333333    0.00057870  32 t-inv F
 -0.416667 -0.083333 -0.083333    0.00057870  33 t-inv F
  0.083333  0.416667  0.083333    0.00057870  33 t-inv F
 -0.083333 -0.416667 -0.083333    0.00057870  33 t-inv F
  0.083333  0.083333  0.416667    0.00057870  33 t-inv F
 -0.083333 -0.083333 -0.416667    0.00057870  33 t-inv F
 -0.083333  0.416667  0.083333    0.00057870  33 t-inv F
  0.083333 -0.416667 -0.083333    0.00057870  33 t-inv F
 -0.416667  0.083333  0.083333    0.00057870  33 t-inv F
  0.416667 -0.083333 -0.083333    0.00057870  33 t-inv F
 -0.083333  0.083333  0.416667    0.00057870  33 t-inv F
  0.083333 -0.083333 -0.416667    0.00057870  33 t-inv F
 -0.416667 -0.083333  0.083333    0.00057870  33 t-inv F
  0.416667  0.083333 -0.083333    0.00057870  33 t-inv F
 -0.083333 -0.416667  0.083333    0.00057870  33 t-inv F
  0.083333  0.416667 -0.083333    0.00057870  33 t-inv F
 -0.083333 -0.083333  0.416667    0.00057870  33 t-inv F
  0.083333  0.083333 -0.416667    0.00057870  33 t-inv F
  0.083333 -0.416667  0.083333    0.00057870  33 t-inv F
 -0.083333  0.416667 -0.083333    0.00057870  33 t-inv F
  0.416667 -0.083333  0.083333    0.00057870  33 t-inv F
 -0.416667  0.083333 -0.083333    0.00057870  33 t-inv F
  0.083333 -0.083333  0.416667    0.00057870  33 t-inv F
 -0.083333  0.083333 -0.416667    0.00057870  33 t-inv F
 -0.500000 -0.083333 -0.083333    0.00057870  34 t-inv F
  0.083333  0.500000  0.083333    0.00057870  34 t-inv F
 -0.083333 -0.500000 -0.083333    0.00057870  34 t-inv F
  0.083333  0.083333  0.500000    0.00057870  34 t-inv F
 -0.083333 -0.083333 -0.500000    0.00057870  34 t-inv F
 -0.083333  0.500000  0.083333    0.00057870  34 t-inv F
  0.083333 -0.500000 -0.083333    0.00057870  34 t-inv F
 -0.083333  0.083333  0.500000    0.00057870  34 t-inv F
  0.083333 -0.083333 -0.500000    0.00057870  34 t-inv F
 -0.500000 -0.083333  0.083333    0.00057870  34 t-inv F
  0.500000  0.083333 -0.083333    0.00057870  34 t-inv F
 -0.166667 -0.166667 -0.083333    0.00057870  35 t-inv F
  0.083333  0.166667  0.166667    0.00057870  35 t-inv F
 -0.083333 -0.166667 -0.166667    0.00057870  35 t-inv F
  0.166667  0.083333  0.166667    0.00057870  35 t-inv F
 -0.166667 -0.083333 -0.166667    0.00057870  35 t-inv F
 -0.166667  0.166667  0.083333    0.00057870  35 t-inv F
  0.166667 -0.166667 -0.083333    0.00057870  35 t-inv F
 -0.166667  0.083333  0.166667    0.00057870  35 t-inv F
  0.166667 -0.083333 -0.166667    0.00057870  35 t-inv F
 -0.083333  0.166667  0.166667    0.00057870  35 t-inv F
  0.083333 -0.166667 -0.166667    0.00057870  35 t-inv F
 -0.166667 -0.166667  0.083333    0.00057870  35 t-inv F
  0.166667  0.166667 -0.083333    0.00057870  35 t-inv F
 -0.083333 -0.166667  0.166667    0.00057870  35 t-inv F
  0.083333  0.166667 -0.166667    0.00057870  35 t-inv F
 -0.166667 -0.083333  0.166667    0.00057870  35 t-inv F
  0.166667  0.083333 -0.166667    0.00057870  35 t-inv F
  0.166667 -0.166667  0.083333    0.00057870  35 t-inv F
 -0.166667  0.166667 -0.083333    0.00057870  35 t-inv F
  0.166667 -0.083333  0.166667    0.00057870  35 t-inv F
 -0.166667  0.083333 -0.166667    0.00057870  35 t-inv F
  0.083333 -0.166667  0.166667    0.00057870  35 t-inv F
 -0.083333  0.166667 -0.166667    0.00057870  35 t-inv F
 -0.250000 -0.166667 -0.083333    0.00057870  36 t-inv F
  0.083333  0.250000  0.166667    0.00057870  36 t-inv F
 -0.083333 -0.250000 -0.166667    0.00057870  36 t-inv F
  0.166667  0.083333  0.250000    0.00057870  36 t-inv F
 -0.166667 -0.083333 -0.250000    0.00057870  36 t-inv F
 -0.166667  0.250000  0.083333    0.00057870  36 t-inv F
  0.166667 -0.250000 -0.083333    0.00057870  36 t-inv F
 -0.250000  0.083333  0.166667    0.00057870  36 t-inv F
  0.250000 -0.083333 -0.166667    0.00057870  36 t-inv F
 -0.083333  0.166667  0.250000    0.00057870  36 t-inv F
  0.083333 -0.166667 -0.250000    0.00057870  36 t-inv F
 -0.250000 -0.166667  0.083333    0.00057870  36 t-inv F
  0.250000  0.166667 -0.083333    0.00057870  36 t-inv F
 -0.083333 -0.250000  0.166667    0.00057870  36 t-inv F
  0.083333  0.250000 -0.166667    0.00057870  36 t-inv F
 -0.166667 -0.083333  0.250000    0.00057870  36 t-inv F
  0.166667  0.083333 -0.250000    0.00057870  36 t-inv F
  0.166667 -0.250000  0.083333    0.00057870  36 t-inv F
 -0.166667  0.250000 -0.083333    0.00057870  36 t-inv F
  0.250000 -0.083333  0.166667    0.00057870  36 t-inv F
 -0.250000  0.083333 -0.166667    0.00057870  36 t-inv F
  0.083333 -0.166667  0.250000    0.00057870  36 t-inv F
 -0.083333  0.166667 -0.250000    0.00057870  36 t-inv F
  0.083333 -0.250000 -0.166667    0.00057870  36 t-inv F
 -0.083333  0.250000  0.166667    0.00057870  36 t-inv F
  0.166667 -0.083333 -0.250000    0.00057870  36 t-inv F
 -0.166667  0.083333  0.250000    0.00057870  36 t-inv F
  0.250000 -0.166667 -0.083333    0.00057870  36 t-inv F
 -0.250000  0.166667  0.083333    0.00057870  36 t-inv F
  0.083333  0.166667 -0.250000    0.00057870  36 t-inv F
 -0.083333 -0.166667  0.250000    0.00057870  36 t-inv F
  0.166667  0.250000 -0.083333    0.00057870  36 t-inv F
 -0.166667 -0.250000  0.083333    0.00057870  36 t-inv F
  0.250000  0.083333 -0.166667    0.00057870  36 t-inv F
 -0.250000 -0.083333  0.166667    0.00057870  36 t-inv F
 -0.166667  0.083333 -0.250000    0.00057870  36 t-inv F
  0.166667 -0.083333  0.250000    0.00057870  36 t-inv F
 -0.250000  0.166667 -0.083333    0.00057870  36 t-inv F
  0.250000 -0.166667  0.083333    0.00057870  36 t-inv F
 -0.083333  0.250000 -0.166667    0.00057870  36 t-inv F
  0.083333 -0.250000  0.166667    0.00057870  36 t-inv F
 -0.250000 -0.083333 -0.166667    0.00057870  36 t-inv F
  0.250000  0.083333  0.166667    0.00057870  36 t-inv F
 -0.166667 -0.250000 -0.083333    0.00057870  36 t-inv F
  0.166667  0.250000  0.083333    0.00057870  36 t-inv F
 -0.083333 -0.166667 -0.250000    0.00057870  36 t-inv F
  0.083333  0.166667  0.250000    0.00057870  36 t-inv F
 -0.333333 -0.166667 -0.083333    0.00057870  37 t-inv F
  0.083333  0.333333  0.166667    0.00057870  37 t-inv F
 -0.083333 -0.333333 -0.166667    0.00057870  37 t-inv F
  0.166667  0.083333  0.333333    0.00057870  37 t-inv F
 -0.166667 -0.083333 -0.333333    0.00057870  37 t-inv F
 -0.166667  0.333333  0.083333    0.00057870  37 t-inv F
  0.166667 -0.333333 -0.083333    0.00057870  37 t-inv F
 -0.333333  0.083333  0.166667    0.00057870  37 t-inv F
  0.333333 -0.083333 -0.166667    0.00057870  37 t-inv F
 -0.083333  0.166667  0.333333    0.00057870  37 t-inv F
  0.083333 -0.166667 -0.333333    0.00057870  37 t-inv F
 -0.333333 -0.166667  0.083333    0.00057870  37 t-inv F
  0.333333  0.166667 -0.083333    0.00057870  37 t-inv F
 -0.083333 -0.333333  0.166667    0.00057870  37 t-inv F
  0.083333  0.333333 -0.166667    0.00057870  37 t-inv F
 -0.166667 -0.083333  0.333333    0.00057870  37 t-inv F
  0.166667  0.083333 -0.333333    0.00057870  37 t-inv F
  0.166667 -0.333333  0.083333    0.00057870  37 t-inv F
 -0.166667  0.333333 -0.083333    0.00057870  37 t-inv F
  0.333333 -0.083333  0.166667    0.00057870  37 t-inv F
 -0.333333  0.083333 -0.166667    0.00057870  37 t-inv F
  0.083333 -0.166667  0.333333    0.00057870  37 t-inv F
 -0.083333  0.166667 -0.333333    0.00057870  37 t-inv F
  0.083333 -0.333333 -0.166667    0.00057870  37 t-inv F
 -0.083333  0.333333  0.166667    0.00057870  37 t-inv F
  0.166667 -0.083333 -0.333333    0.00057870  37 t-inv F
 -0.166667  0.083333  0.333333    0.00057870  37 t-inv F
  0.333333 -0.166667 -0.083333    0.00057870  37 t-inv F
 -0.333333  0.166667  0.083333    0.00057870  37 t-inv F
  0.083333  0.166667 -0.333333    0.00057870  37 t-inv F
 -0.083333 -0.166667  0.333333    0.00057870  37 t-inv F
  0.166667  0.333333 -0.083333    0.00057870  37 t-inv F
 -0.166667 -0.333333  0.083333    0.00057870  37 t-inv F
  0.333333  0.083333 -0.166667    0.00057870  37 t-inv F
 -0.333333 -0.083333  0.166667    0.00057870  37 t-inv F
 -0.166667  0.083333 -0.333333    0.00057870  37 t-inv F
  0.166667 -0.083333  0.333333    0.00057870  37 t-inv F
 -0.333333  0.166667 -0.083333    0.00057870  37 t-inv F
  0.333333 -0.166667  0.083333    0.00057870  37 t-inv F
 -0.083333  0.333333 -0.166667    0.00057870  37 t-inv F
  0.083333 -0.333333  0.166667    0.00057870  37 t-inv F
 -0.333333 -0.083333 -0.166667    0.00057870  37 t-inv F
  0.333333  0.083333  0.166667    0.00057870  37 t-inv F
 -0.166667 -0.333333 -0.083333    0.00057870  37 t-inv F
  0.166667  0.333333  0.083333    0.00057870  37 t-inv F
 -0.083333 -0.166667 -0.333333    0.00057870  37 t-inv F
  0.083333  0.166667  0.333333    0.00057870  37 t-inv F
 -0.416667 -0.166667 -0.083333    0.00057870  38 t-inv F
  0.083333  0.416667  0.166667    0.00057870  38 t-inv F
 -0.083333 -0.416667 -0.166667    0.00057870  38 t-inv F
  0.166667  0.083333  0.416667    0.00057870  38 t-inv F
 -0.166667 -0.083333 -0.416667    0.00057870  38 t-inv F
 -0.166667  0.416667  0.083333    0.00057870  38 t-inv F
  0.166667 -0.416667 -0.083333    0.00057870  38 t-inv F
 -0.416667  0.083333  0.166667    0.00057870  38 t-inv F
  0.416667 -0.083333 -0.166667    0.00057870  38 t-inv F
 -0.083333  0.166667  0.416667    0.00057870  38 t-inv F
  0.083333 -0.166667 -0.416667    0.00057870  38 t-inv F
 -0.416667 -0.166667  0.083333    0.00057870  38 t-inv F
  0.416667  0.166667 -0.083333    0.00057870  38 t-inv F
 -0.083333 -0.416667  0.166667    0.00057870  38 t-inv F
  0.083333  0.416667 -0.166667    0.00057870  38 t-inv F
 -0.166667 -0.083333  0.416667    0.00057870  38 t-inv F
  0.166667  0.083333 -0.416667    0.00057870  38 t-inv F
  0.166667 -0.416667  0.083333    0.00057870  38 t-inv F
 -0.166667  0.416667 -0.083333    0.00057870  38 t-inv F
  0.416667 -0.083333  0.166667    0.00057870  38 t-inv F
 -0.416667  0.083333 -0.166667    0.00057870  38 t-inv F
  0.083333 -0.166667  0.416667    0.00057870  38 t-inv F
 -0.083333  0.166667 -0.416667    0.00057870  38 t-inv F
  0.083333 -0.416667 -0.166667    0.00057870  38 t-inv F
 -0.083333  0.416667  0.166667    0.00057870  38 t-inv F
  0.166667 -0.083333 -0.416667    0.00057870  38 t-inv F
 -0.166667  0.083333  0.416667    0.00057870  38 t-inv F
  0.416667 -0.166667 -0.083333    0.00057870  38 t-inv F
 -0.416667  0.166667  0.083333    0.00057870  38 t-inv F
  0.083333  0.166667 -0.416667    0.00057870  38 t-inv F
 -0.083333 -0.166667  0.416667    0.00057870  38 t-inv F
  0.166667  0.416667 -0.083333    0.00057870  38 t-inv F
 -0.166667 -0.416667  0.083333    0.00057870  38 t-inv F
  0.416667  0.083333 -0.166667    0.00057870  38 t-inv F
 -0.416667 -0.083333  0.166667    0.00057870  38 t-inv F
 -0.166667  0.083333 -0.416667    0.00057870  38 t-inv F
  0.166667 -0.083333  0.416667    0.00057870  38 t-inv F
 -0.416667  0.166667 -0.083333    0.00057870  38 t-inv F
  0.416667 -0.166667  0.083333    0.00057870  38 t-inv F
 -0.083333  0.416667 -0.166667    0.00057870  38 t-inv F
  0.083333 -0.416667  0.166667    0.00057870  38 t-inv F
 -0.416667 -0.083333 -0.166667    0.00057870  38 t-inv F
  0.416667  0.083333  0.166667    0.00057870  38 t-inv F
 -0.166667 -0.416667 -0.083333    0.00057870  38 t-inv F
  0.166667  0.416667  0.083333    0.00057870  38 t-inv F
 -0.083333 -0.166667 -0.416667    0.00057870  38 t-inv F
  0.083333  0.166667  0.416667    0.00057870  38 t-inv F
 -0.500000 -0.166667 -0.083333    0.00057870  39 t-inv F
  0.083333  0.500000  0.166667    0.00057870  39 t-inv F
 -0.083333 -0.500000 -0.166667    0.00057870  39 t-inv F
  0.166667  0.083333  0.500000    0.00057870  39 t-inv F
 -0.166667 -0.083333 -0.500000    0.00057870  39 t-inv F
 -0.166667  0.500000  0.083333    0.00057870  39 t-inv F
  0.166667 -0.500000 -0.083333    0.00057870  39 t-inv F
 -0.500000  0.083333  0.166667    0.00057870  39 t-inv F
  0.500000 -0.083333 -0.166667    0.00057870  39 t-inv F
 -0.083333  0.166667  0.500000    0.00057870  39 t-inv F
  0.083333 -0.166667 -0.500000    0.00057870  39 t-inv F
 -0.500000 -0.166667  0.083333    0.00057870  39 t-inv F
  0.500000  0.166667 -0.083333    0.00057870  39 t-inv F
 -0.083333 -0.500000  0.166667    0.00057870  39 t-inv F
  0.083333  0.500000 -0.166667    0.00057870  39 t-inv F
  0.166667 -0.500000  0.083333    0.00057870  39 t-inv F
 -0.166667  0.500000 -0.083333    0.00057870  39 t-inv F
  0.500000 -0.083333  0.166667    0.00057870  39 t-inv F
 -0.500000  0.083333 -0.166667    0.00057870  39 t-inv F
  0.166667 -0.083333 -0.500000    0.00057870  39 t-inv F
 -0.166667  0.083333  0.500000    0.00057870  39 t-inv F
  0.083333  0.166667 -0.500000    0.00057870  39 t-inv F
 -0.083333 -0.166667  0.500000    0.00057870  39 t-inv F
 -0.250000 -0.250000 -0.083333    0.00057870  40 t-inv F
  0.083333  0.250000  0.250000    0.00057870  40 t-inv F
 -0.083333 -0.250000 -0.250000    0.00057870  40 t-inv F
  0.250000  0.083333  0.250000    0.00057870  40 t-inv F
 -0.250000 -0.083333 -0.250000    0.00057870  40 t-inv F
 -0.250000  0.250000  0.083333    0.00057870  40 t-inv F
  0.250000 -0.250000 -0.083333    0.00057870  40 t-inv F
 -0.250000  0.083333  0.250000    0.00057870  40 t-inv F
  0.250000 -0.083333 -0.250000    0.00057870  40 t-inv F
 -0.083333  0.250000  0.250000    0.00057870  40 t-inv F
  0.083333 -0.250000 -0.250000    0.00057870  40 t-inv F
 -0.250000 -0.250000  0.083333    0.00057870  40 t-inv F
  0.250000  0.250000 -0.083333    0.00057870  40 t-inv F
 -0.083333 -0.250000  0.250000    0.00057870  40 t-inv F
  0.083333  0.250000 -0.250000    0.00057870  40 t-inv F
 -0.250000 -0.083333  0.250000    0.00057870  40 t-inv F
  0.250000  0.083333 -0.250000    0.00057870  40 t-inv F
  0.250000 -0.250000  0.083333    0.00057870  40 t-inv F
 -0.250000  0.250000 -0.083333    0.00057870  40 t-inv F
  0.250000 -0.083333  0.250000    0.00057870  40 t-inv F
 -0.250000  0.083333 -0.250000    0.00057870  40 t-inv F
  0.083333 -0.250000  0.250000    0.00057870  40 t-inv F
 -0.083333  0.250000 -0.250000    0.00057870  40 t-inv F
 -0.333333 -0.250000 -0.083333    0.00057870  41 t-inv F
  0.083333  0.333333  0.250000    0.00057870  41 t-inv F
 -0.083333 -0.333333 -0.250000    0.00057870  41 t-inv F
  0.250000  0.083333  0.333333    0.00057870  41 t-inv F
 -0.250000 -0.083333 -0.333333    0.00057870  41 t-inv F
 -0.250000  0.333333  0.083333    0.00057870  41 t-inv F
  0.250000 -0.333333 -0.083333    0.00057870  41 t-inv F
 -0.333333  0.083333  0.250000    0.00057870  41 t-inv F
  0.333333 -0.083333 -0.250000    0.00057870  41 t-inv F
 -0.083333  0.250000  0.333333    0.00057870  41 t-inv F
  0.083333 -0.250000 -0.333333    0.00057870  41 t-inv F
 -0.333333 -0.250000  0.083333    0.00057870  41 t-inv F
  0.333333  0.250000 -0.083333    0.00057870  41 t-inv F
 -0.083333 -0.333333  0.250000    0.00057870  41 t-inv F
  0.083333  0.333333 -0.250000    0.00057870  41 t-inv F
 -0.250000 -0.083333  0.333333    0.00057870  41 t-inv F
  0.250000  0.083333 -0.333333    0.00057870  41 t-inv F
  0.250000 -0.333333  0.083333    0.00057870  41 t-inv F
 -0.250000  0.333333 -0.083333    0.00057870  41 t-inv F
  0.333333 -0.083333  0.250000    0.00057870  41 t-inv F
 -0.333333  0.083333 -0.250000    0.00057870  41 t-inv F
  0.083333 -0.250000  0.333333    0.00057870  41 t-inv F
 -0.083333  0.250000 -0.333333    0.00057870  41 t-inv F
  0.083333 -0.333333 -0.250000    0.00057870  41 t-inv F
 -0.083333  0.333333  0.250000    0.00057870  41 t-inv F
  0.250000 -0.083333 -0.333333    0.00057870  41 t-inv F
 -0.250000  0.083333  0.333333    0.00057870  41 t-inv F
  0.333333 -0.250000 -0.083333    0.00057870  41 t-inv F
 -0.333333  0.250000  0.083333    0.00057870  41 t-inv F
  0.083333  0.250000 -0.333333    0.00057870  41 t-inv F
 -0.083333 -0.250000  0.333333    0.00057870  41 t-inv F
  0.250000  0.333333 -0.083333    0.00057870  41 t-inv F
 -0.250000 -0.333333  0.083333    0.00057870  41 t-inv F
  0.333333  0.083333 -0.250000    0.00057870  41 t-inv F
 -0.333333 -0.083333  0.250000    0.00057870  41 t-inv F
 -0.250000  0.083333 -0.333333    0.00057870  41 t-inv F
  0.250000 -0.083333  0.333333    0.00057870  41 t-inv F
 -0.333333  0.250000 -0.083333    0.00057870  41 t-inv F
  0.333333 -0.250000  0.083333    0.00057870  41 t-inv F
 -0.083333  0.333333 -0.250000    0.00057870  41 t-inv F
  0.083333 -0.333333  0.250000    0.00057870  41 t-inv F
 -0.333333 -0.083333 -0.250000    0.00057870  41 t-inv F
  0.333333  0.083333  0.250000    0.00057870  41 t-inv F
 -0.250000 -0.333333 -0.083333    0.00057870  41 t-inv F
  0.250000  0.333333  0.083333    0.00057870  41 t-inv F
 -0.083333 -0.250000 -0.333333    0.00057870  41 t-inv F
  0.083333  0.250000  0.333333    0.00057870  41 t-inv F
 -0.416667 -0.250000 -0.083333    0.00057870  42 t-inv F
  0.083333  0.416667  0.250000    0.00057870  42 t-inv F
 -0.083333 -0.416667 -0.250000    0.00057870  42 t-inv F
  0.250000  0.083333  0.416667    0.00057870  42 t-inv F
 -0.250000 -0.083333 -0.416667    0.00057870  42 t-inv F
 -0.250000  0.416667  0.083333    0.00057870  42 t-inv F
  0.250000 -0.416667 -0.083333    0.00057870  42 t-inv F
 -0.416667  0.083333  0.250000    0.00057870  42 t-inv F
  0.416667 -0.083333 -0.250000    0.00057870  42 t-inv F
 -0.083333  0.250000  0.416667    0.00057870  42 t-inv F
  0.083333 -0.250000 -0.416667    0.00057870  42 t-inv F
 -0.416667 -0.250000  0.083333    0.00057870  42 t-inv F
  0.416667  0.250000 -0.083333    0.00057870  42 t-inv F
 -0.083333 -0.416667  0.250000    0.00057870  42 t-inv F
[...]


--------------------------------------------------------------------------------------------------------


  LATTYP: Found a simple cubic cell.
 ALAT       =     5.4872473072
  
  Lattice vectors:
  
 A1 = (   5.4872473072,   0.0000000000,   0.0000000000)
 A2 = (   0.0000000000,   5.4872473072,   0.0000000000)
 A3 = (   0.0000000000,   0.0000000000,   5.4872473072)


Analysis of symmetry for initial positions (statically):
=====================================================================
 Subroutine PRICEL returns:
 Original cell was already a primitive cell.
 

 Routine SETGRP: Setting up the symmetry group for a 
 simple cubic supercell.


 Subroutine GETGRP returns: Found 48 space group operations
 (whereof 48 operations were pure point group operations)
 out of a pool of 48 trial point group operations.


The static configuration has the point symmetry O_h .


Analysis of symmetry for dynamics (positions and initial velocities):
=====================================================================
 Subroutine PRICEL returns:
 Original cell was already a primitive cell.
 

 Routine SETGRP: Setting up the symmetry group for a 
 simple cubic supercell.


 Subroutine GETGRP returns: Found 48 space group operations
 (whereof 48 operations were pure point group operations)
 out of a pool of 48 trial point group operations.


The dynamic configuration has the point symmetry O_h .


 Subroutine INISYM returns: Found 48 space group operations
 (whereof 48 operations are pure point group operations),
 and found     1 'primitive' translations



--------------------------------------------------------------------------------------------------------




 MACROSCOPIC STATIC DIELECTRIC TENSOR (including local field effects in DFT)
 ------------------------------------------------------
           4.427409     0.000000    -0.000000
           0.000000     4.427409    -0.000000
          -0.000000     0.000000     4.427409
 ------------------------------------------------------


 PIEZOELECTRIC TENSOR  for field in x, y, z        (e  Angst)
          XX          YY          ZZ          XY          YZ          ZX
  --------------------------------------------------------------------------------
  x    -0.00133     0.00103     0.00103     0.00000    -0.00000    -0.00000
  y     0.00103    -0.00133     0.00103     0.00000     0.00000     0.00000
  z     0.00104     0.00104    -0.00133     0.00000     0.00000    -0.00000

 PIEZOELECTRIC TENSOR  for field in x, y, z        (C/m^2)
          XX          YY          ZZ          XY          YZ          ZX
  --------------------------------------------------------------------------------
  x     0.00000     0.00000     0.00000     0.00000     0.00000     0.00000
  y     0.00000     0.00000     0.00000     0.00000     0.00000     0.00000
  z     0.00000     0.00000     0.00000     0.00000     0.00000     0.00000
 
 BORN EFFECTIVE CHARGES (in e, cummulative output)
 -------------------------------------------------
 ion    1
    1    -2.65111     0.00000    -0.00000
    2    -0.00000    -0.82995     0.00000
    3    -0.00000     0.00000    -0.82995
 ion    2
    1    -0.82995    -0.00000    -0.00000
    2     0.00000    -2.65111     0.00000
    3     0.00000     0.00000    -0.82995
 ion    3
    1    -0.82995    -0.00000     0.00000
    2     0.00000    -0.82995    -0.00000
    3     0.00000    -0.00000    -2.65111
 ion    4
    1     2.95114     0.00000    -0.00000
    2     0.00000     2.95114     0.00000
    3    -0.00000     0.00000     2.95114
 ion    5
    1     1.35987     0.00000    -0.00000
    2     0.00000     1.35987     0.00000
    3    -0.00000     0.00000     1.35987

 INTERNAL STRAIN TENSOR FOR ION    1 for displacements in x,y,z  (eV/Angst):
          X           Y           Z          XY          YZ          ZX
  --------------------------------------------------------------------------------
  x     0.00000     0.00000     0.00000     0.00000     0.00000     0.00000
  y     0.00000     0.00000     0.00000     0.00000     0.00000     0.00000
  z     0.00000     0.00000     0.00000     0.00000     0.00000     0.00000

 INTERNAL STRAIN TENSOR FOR ION    2 for displacements in x,y,z  (eV/Angst):
          X           Y           Z          XY          YZ          ZX
  --------------------------------------------------------------------------------
  x     0.00000     0.00000     0.00000     0.00000     0.00000     0.00000
  y     0.00000     0.00000     0.00000     0.00000     0.00000     0.00000
  z     0.00000     0.00000     0.00000     0.00000     0.00000     0.00000

 INTERNAL STRAIN TENSOR FOR ION    3 for displacements in x,y,z  (eV/Angst):
          X           Y           Z          XY          YZ          ZX
  --------------------------------------------------------------------------------
  x     0.00000     0.00000     0.00000     0.00000     0.00000     0.00000
  y     0.00000     0.00000     0.00000     0.00000     0.00000     0.00000
  z     0.00000     0.00000     0.00000     0.00000     0.00000     0.00000

 INTERNAL STRAIN TENSOR FOR ION    4 for displacements in x,y,z  (eV/Angst):
          X           Y           Z          XY          YZ          ZX
  --------------------------------------------------------------------------------
  x     0.00000     0.00000     0.00000     0.00000     0.00000     0.00000
  y     0.00000     0.00000     0.00000     0.00000     0.00000     0.00000
  z     0.00000     0.00000     0.00000     0.00000     0.00000     0.00000

 INTERNAL STRAIN TENSOR FOR ION    5 for displacements in x,y,z  (eV/Angst):
          X           Y           Z          XY          YZ          ZX
  --------------------------------------------------------------------------------
  x     0.00000     0.00000     0.00000     0.00000     0.00000     0.00000
  y     0.00000     0.00000     0.00000     0.00000     0.00000     0.00000
  z     0.00000     0.00000     0.00000     0.00000     0.00000     0.00000


--------------------------------------------------------------------------------------------------------


 
 SECOND DERIVATIVES (NOT SYMMETRIZED)
 ------------------------------------
               1X          1Y          1Z          2X          2Y          2Z          3X          3Y          3Z          4X          4Y          4Z          5X          5Y          5Z 
  1X    -5.172456    0.000000   -0.000000    0.875598   -0.000000    0.000000    0.875598   -0.000000    0.000000    3.368526    0.000000   -0.000000    0.052734    0.000000   -0.000000
  1Y     0.000000   -0.557725    0.000000    0.000000    0.874541    0.000000    0.000000   -0.075301    0.000000    0.000000   -0.456228    0.000000    0.000000    0.214714    0.000000
  1Z     0.000000    0.000000   -0.557725    0.000000    0.000000   -0.075301    0.000000    0.000000    0.874541    0.000000    0.000000   -0.456228    0.000000    0.000000    0.214714
  2X     0.874541    0.000000    0.000000   -0.557725    0.000000    0.000000   -0.075301    0.000000    0.000000   -0.456228    0.000000    0.000000    0.214714    0.000000    0.000000
  2Y    -0.000000    0.875598    0.000000    0.000000   -5.172456   -0.000000   -0.000000    0.875598    0.000000    0.000000    3.368526   -0.000000    0.000000    0.052734   -0.000000
  2Z     0.000000    0.000000   -0.075301    0.000000    0.000000   -0.557725    0.000000    0.000000    0.874541    0.000000    0.000000   -0.456228    0.000000    0.000000    0.214714
  3X     0.874541    0.000000    0.000000   -0.075301    0.000000    0.000000   -0.557725    0.000000    0.000000   -0.456228    0.000000    0.000000    0.214714    0.000000    0.000000
  3Y     0.000000   -0.075301    0.000000    0.000000    0.874541    0.000000    0.000000   -0.557725    0.000000    0.000000   -0.456228    0.000000    0.000000    0.214714    0.000000
  3Z     0.000000    0.000000    0.875598    0.000000    0.000000    0.875598   -0.000000   -0.000000   -5.172456   -0.000000   -0.000000    3.368526   -0.000000   -0.000000    0.052734
  4X     3.370715    0.000000    0.000000   -0.457434   -0.000000    0.000000   -0.457434   -0.000000   -0.000000   -2.569035    0.000000   -0.000000    0.113187   -0.000000   -0.000000
  4Y    -0.000000   -0.457434   -0.000000    0.000000    3.370715    0.000000   -0.000000   -0.457434    0.000000   -0.000000   -2.569035    0.000000   -0.000000    0.113187   -0.000000
  4Z     0.000000   -0.000000   -0.457434   -0.000000    0.000000   -0.457434    0.000000    0.000000    3.370715   -0.000000   -0.000000   -2.569035   -0.000000   -0.000000    0.113187
  5X     0.042061   -0.000000    0.000000    0.205260   -0.000000    0.000000    0.205260    0.000000    0.000000    0.096864   -0.000000    0.000000   -0.549446   -0.000000    0.000000
  5Y    -0.000000    0.205260    0.000000   -0.000000    0.042061    0.000000    0.000000    0.205260    0.000000   -0.000000    0.096864    0.000000   -0.000000   -0.549446    0.000000
  5Z     0.000000   -0.000000    0.205260   -0.000000    0.000000    0.205260    0.000000    0.000000    0.042061    0.000000    0.000000    0.096864    0.000000    0.000000   -0.549446
 
 
 Eigenvectors and eigenvalues of the dynamical matrix
 ----------------------------------------------------
 
 
   1 f  =    4.652682 THz    29.233665 2PiTHz  155.196773 cm-1    19.241954 meV
             X         Y         Z           dx          dy          dz
      0.000000  2.743624  2.743624     0.404615    0.127306   -0.000000  
      2.743624  0.000000  2.743624    -0.068717   -0.749602   -0.000000  
      2.743624  2.743624  0.000000    -0.068717    0.127306   -0.000000  
      2.743624  2.743624  2.743624    -0.229021    0.424291    0.000000  
      0.000000  0.000000  0.000000     0.003443   -0.006379    0.000000  
 
   2 f  =    4.652682 THz    29.233665 2PiTHz  155.196773 cm-1    19.241954 meV
             X         Y         Z           dx          dy          dz
      0.000000  2.743624  2.743624     0.000000   -0.000000    0.144668  
      2.743624  0.000000  2.743624     0.000000    0.000000    0.144668  
      2.743624  2.743624  0.000000     0.000000   -0.000000   -0.851831  
      2.743624  2.743624  2.743624     0.000000    0.000000    0.482155  
      0.000000  0.000000  0.000000     0.000000    0.000000   -0.007249  
 
   3 f  =    4.652682 THz    29.233665 2PiTHz  155.196773 cm-1    19.241954 meV
             X         Y         Z           dx          dy          dz
      0.000000  2.743624  2.743624    -0.749602    0.068717   -0.000000  
      2.743624  0.000000  2.743624     0.127306   -0.404615    0.000000  
      2.743624  2.743624  0.000000     0.127306    0.068717    0.000000  
      2.743624  2.743624  2.743624     0.424291    0.229021    0.000000  
      0.000000  0.000000  0.000000    -0.006379   -0.003443    0.000000  
 
   4 f  =    1.324033 THz     8.319147 2PiTHz   44.164996 cm-1     5.475764 meV
             X         Y         Z           dx          dy          dz
      0.000000  2.743624  2.743624     0.020153   -0.493204    0.011695  
      2.743624  0.000000  2.743624     0.156680   -0.063439    0.011695  
      2.743624  2.743624  0.000000     0.156680   -0.493204    0.001504  
      2.743624  2.743624  2.743624    -0.061361    0.193155   -0.004580  
      0.000000  0.000000  0.000000    -0.195839    0.616470   -0.014618  
 
   5 f  =    1.324033 THz     8.319147 2PiTHz   44.164996 cm-1     5.475764 meV
             X         Y         Z           dx          dy          dz
      0.000000  2.743624  2.743624    -0.017273   -0.054444   -0.496928  
      2.743624  0.000000  2.743624    -0.134288   -0.007003   -0.496928  
      2.743624  2.743624  0.000000    -0.134288   -0.054444   -0.063918  
      2.743624  2.743624  2.743624     0.052592    0.021322    0.194614  
      0.000000  0.000000  0.000000     0.167851    0.068051    0.621126  
 
   6 f  =    1.324033 THz     8.319147 2PiTHz   44.164996 cm-1     5.475764 meV
             X         Y         Z           dx          dy          dz
      0.000000  2.743624  2.743624    -0.061061   -0.147381    0.144432  
      2.743624  0.000000  2.743624    -0.474714   -0.018957    0.144432  
      2.743624  2.743624  0.000000    -0.474714   -0.147381    0.018578  
      2.743624  2.743624  2.743624     0.185914    0.057719   -0.056565  
      0.000000  0.000000  0.000000     0.593359    0.184216   -0.180530  
 
   7 f  =    1.214733 THz     7.632393 2PiTHz   40.519135 cm-1     5.023734 meV
             X         Y         Z           dx          dy          dz
      0.000000  2.743624  2.743624    -0.000000    0.336462    0.577396  
      2.743624  0.000000  2.743624    -0.231100    0.000000   -0.577396  
      2.743624  2.743624  0.000000     0.231100   -0.336462    0.000000  
      2.743624  2.743624  2.743624    -0.000000    0.000000    0.000000  
      0.000000  0.000000  0.000000     0.000000    0.000000    0.000000  
 
   8 f  =    1.214733 THz     7.632393 2PiTHz   40.519135 cm-1     5.023734 meV
             X         Y         Z           dx          dy          dz
      0.000000  2.743624  2.743624    -0.000000    0.522899   -0.120381  
      2.743624  0.000000  2.743624     0.460527    0.000000    0.120381  
      2.743624  2.743624  0.000000    -0.460527   -0.522899    0.000000  
      2.743624  2.743624  2.743624    -0.000000    0.000000    0.000000  
      0.000000  0.000000  0.000000    -0.000000   -0.000000    0.000000  
 
   9 f  =    1.214733 THz     7.632393 2PiTHz   40.519135 cm-1     5.023734 meV
             X         Y         Z           dx          dy          dz
      0.000000  2.743624  2.743624    -0.000000   -0.336705    0.390028  
      2.743624  0.000000  2.743624     0.484260    0.000000   -0.390028  
      2.743624  2.743624  0.000000    -0.484260    0.336705   -0.000000  
      2.743624  2.743624  2.743624     0.000000    0.000000   -0.000000  
      0.000000  0.000000  0.000000     0.000000    0.000000   -0.000000  
 
  10 f  =    0.976220 THz     6.133772 2PiTHz   32.563200 cm-1     4.037324 meV
             X         Y         Z           dx          dy          dz
      0.000000  2.743624  2.743624    -0.267491   -0.129731   -0.002322  
      2.743624  0.000000  2.743624     0.175605    0.197613   -0.002322  
      2.743624  2.743624  0.000000     0.175605   -0.129731    0.003537  
      2.743624  2.743624  2.743624    -0.571457    0.422172    0.007557  
      0.000000  0.000000  0.000000     0.432509   -0.319522   -0.005719  
 
  11 f  =    0.976220 THz     6.133772 2PiTHz   32.563200 cm-1     4.037324 meV
             X         Y         Z           dx          dy          dz
      0.000000  2.743624  2.743624    -0.197557    0.175384    0.009613  
      2.743624  0.000000  2.743624     0.129694   -0.267154    0.009613  
      2.743624  2.743624  0.000000     0.129694    0.175384   -0.014642  
      2.743624  2.743624  2.743624    -0.422054   -0.570738   -0.031282  
      0.000000  0.000000  0.000000     0.319432    0.431964    0.023675  
 
  12 f  =    0.976220 THz     6.133772 2PiTHz   32.563200 cm-1     4.037324 meV
             X         Y         Z           dx          dy          dz
      0.000000  2.743624  2.743624     0.005859   -0.009110    0.218116  
      2.743624  0.000000  2.743624    -0.003846    0.013878    0.218116  
      2.743624  2.743624  0.000000    -0.003846   -0.009110   -0.332247  
      2.743624  2.743624  2.743624     0.012517    0.029647   -0.709799  
      0.000000  0.000000  0.000000    -0.009473   -0.022439    0.537212  
 
  13 f/i=    0.023024 THz     0.144662 2PiTHz    0.767985 cm-1     0.095218 meV
             X         Y         Z           dx          dy          dz
      0.000000  2.743624  2.743624     0.398853    0.009780   -0.012780  
      2.743624  0.000000  2.743624     0.403986    0.009656   -0.012780  
      2.743624  2.743624  0.000000     0.403986    0.009780   -0.012617  
      2.743624  2.743624  2.743624     0.470352    0.011387   -0.014879  
      0.000000  0.000000  0.000000     0.540085    0.013075   -0.017085  
 
  14 f/i=    0.023024 THz     0.144662 2PiTHz    0.767985 cm-1     0.095218 meV
             X         Y         Z           dx          dy          dz
      0.000000  2.743624  2.743624     0.012633   -0.000498    0.404103  
      2.743624  0.000000  2.743624     0.012796   -0.000492    0.404103  
      2.743624  2.743624  0.000000     0.012796   -0.000498    0.398969  
      2.743624  2.743624  2.743624     0.014898   -0.000580    0.470489  
      0.000000  0.000000  0.000000     0.017106   -0.000666    0.540243  
 
  15 f/i=    0.023024 THz     0.144662 2PiTHz    0.767985 cm-1     0.095218 meV
             X         Y         Z           dx          dy          dz
      0.000000  2.743624  2.743624     0.009636   -0.404188   -0.000807  
      2.743624  0.000000  2.743624     0.009760   -0.399052   -0.000807  
      2.743624  2.743624  0.000000     0.009760   -0.404188   -0.000797  
      2.743624  2.743624  2.743624     0.011363   -0.470587   -0.000940  
      0.000000  0.000000  0.000000     0.013048   -0.540355   -0.001079  
 


--------------------------------------------------------------------------------------------------------




 MACROSCOPIC STATIC DIELECTRIC TENSOR IONIC CONTRIBUTION
 ------------------------------------------------------
          12.684972     0.000000    -0.000000
           0.000000    12.684971     0.000000
          -0.000000     0.000000    12.684971
 ------------------------------------------------------


 ELASTIC MODULI IONIC CONTR (kBar)
 Direction    XX          YY          ZZ          XY          YZ          ZX
 --------------------------------------------------------------------------------
 XX           0.0000      0.0000      0.0000      0.0000      0.0000      0.0000
 YY           0.0000      0.0000      0.0000      0.0000      0.0000      0.0000
 ZZ           0.0000      0.0000      0.0000      0.0000      0.0000      0.0000
 XY           0.0000      0.0000      0.0000      0.0000      0.0000      0.0000
 YZ           0.0000      0.0000      0.0000      0.0000      0.0000      0.0000
 ZX           0.0000      0.0000      0.0000      0.0000      0.0000      0.0000
 --------------------------------------------------------------------------------


 PIEZOELECTRIC TENSOR IONIC CONTR  for field in x, y, z        (C/m^2)
          XX          YY          ZZ          XY          YZ          ZX
  --------------------------------------------------------------------------------
  x     0.00000     0.00000     0.00000     0.00000     0.00000     0.00000
  y     0.00000     0.00000     0.00000     0.00000     0.00000     0.00000
  z     0.00000     0.00000     0.00000     0.00000     0.00000     0.00000


--------------------------------------------------------------------------------------------------------


     LOOP+:  cpu time 1064.8970: real time 1065.2262
    4ORBIT:  cpu time    0.0000: real time    0.0000

 total amount of memory used by VASP MPI-rank0   277166. kBytes
=======================================================================

   base      :      30000. kBytes
   nonl-proj :     228391. kBytes
   fftplans  :       3894. kBytes
   grid      :       6257. kBytes
   one-center:         77. kBytes
   wavefun   :       8547. kBytes
 
  
  
 General timing and accounting informations for this job:
 ========================================================
  
                  Total CPU time used (sec):     1072.822
                            User time (sec):     1065.679
                          System time (sec):        7.142
                         Elapsed time (sec):     1073.771
  
                   Maximum memory used (kb):     1739004.
                   Average memory used (kb):           0.
  
                          Minor page faults:      3124895
                          Major page faults:            0
                 Voluntary context switches:         1129
