 running on   40 total cores
 distrk:  each k-point on   40 cores,    1 groups
 distr:  one band on    1 cores,   40 groups
 using from now: INCAR     
 vasp.5.4.4.18Apr17-6-g9f103f2a35 (build Aug 14 2019 21:35:17) complex          
  
 POSCAR found type information on POSCAR  Br Cd Cs
 POSCAR found :  3 types and       5 ions
 scaLAPACK will be used

 ----------------------------------------------------------------------------- 
|                                                                             |
|           W    W    AA    RRRRR   N    N  II  N    N   GGGG   !!!           |
|           W    W   A  A   R    R  NN   N  II  NN   N  G    G  !!!           |
|           W    W  A    A  R    R  N N  N  II  N N  N  G       !!!           |
|           W WW W  AAAAAA  RRRRR   N  N N  II  N  N N  G  GGG   !            |
|           WW  WW  A    A  R   R   N   NN  II  N   NN  G    G                |
|           W    W  A    A  R    R  N    N  II  N    N   GGGG   !!!           |
|                                                                             |
|      For optimal performance we recommend to set                            |
|        NCORE= 4 - approx SQRT( number of cores)                             |
|      NCORE specifies how many cores store one orbital (NPAR=cpu/NCORE).     |
|      This setting can  greatly improve the performance of VASP for DFT.     |
|      The default,   NCORE=1            might be grossly inefficient         |
|      on modern multi-core architectures or massively parallel machines.     |
|      Do your own testing !!!!                                               |
|      Unfortunately you need to use the default for GW and RPA calculations. |
|      (for HF NCORE is supported but not extensively tested yet)             |
|                                                                             |
 ----------------------------------------------------------------------------- 


 ----------------------------------------------------------------------------- 
|                                                                             |
|  ADVICE TO THIS USER RUNNING 'VASP/VAMP'   (HEAR YOUR MASTER'S VOICE ...):  |
|                                                                             |
|      You enforced a specific xc-type in the INCAR file,                     |
|      a different type was found on the POTCAR file                          |
|          I HOPE YOU KNOW, WHAT YOU ARE  DOING                               |
|                                                                             |
 ----------------------------------------------------------------------------- 

 LDA part: xc-table for Pade appr. of Perdew
 POSCAR, INCAR and KPOINTS ok, starting setup
 FFT: planning ...
 WAVECAR not read
 entering main loop
       N       E                     dE             d eps       ncg     rms          rms(c)
DAV:   1     0.219777978706E+03    0.21978E+03   -0.22424E+04  6720   0.109E+03
DAV:   2    -0.965338859142E+01   -0.22943E+03   -0.22744E+03  9920   0.155E+02
DAV:   3    -0.146991789104E+02   -0.50458E+01   -0.50458E+01  7080   0.329E+01
DAV:   4    -0.147171646804E+02   -0.17986E-01   -0.17986E-01 13200   0.203E+00
DAV:   5    -0.147171653304E+02   -0.64997E-06   -0.64997E-06  7240   0.943E-03    0.611E+00
DAV:   6    -0.139558994225E+02    0.76127E+00   -0.21150E+00  7840   0.753E+00    0.501E+00
DAV:   7    -0.138370385144E+02    0.11886E+00   -0.46233E-01 11080   0.305E+00    0.257E+00
DAV:   8    -0.138276757225E+02    0.93628E-02   -0.61933E-02 10760   0.118E+00    0.282E-01
DAV:   9    -0.138278856028E+02   -0.20988E-03   -0.22986E-03 10720   0.261E-01    0.113E-01
DAV:  10    -0.138280291654E+02   -0.14356E-03   -0.39288E-04  9240   0.885E-02    0.466E-02
DAV:  11    -0.138280492599E+02   -0.20094E-04   -0.34304E-05  8960   0.259E-02    0.661E-03
DAV:  12    -0.138280491506E+02    0.10928E-06   -0.38483E-07 10800   0.362E-03    0.248E-03
DAV:  13    -0.138280494330E+02   -0.28246E-06   -0.51941E-07  8800   0.238E-03    0.647E-04
DAV:  14    -0.138280494671E+02   -0.34062E-07   -0.39267E-08 10600   0.645E-04    0.403E-04
DAV:  15    -0.138280494699E+02   -0.27612E-08   -0.71273E-09  8600   0.252E-04
   1 F= -.13828049E+02 E0= -.13828049E+02  d E =-.138280E+02
 curvature:   0.00 expect dE= 0.000E+00 dE for cont linesearch  0.000E+00
 trial: gam= 0.00000 g(F)=  0.000E+00 g(S)=  0.168E-01 ort = 0.000E+00 (trialstep = 0.100E+01)
 search vector abs. value=  0.168E-01
 bond charge predicted
       N       E                     dE             d eps       ncg     rms          rms(c)
DAV:   1    -0.138732578926E+02   -0.45208E-01   -0.68455E-01  6720   0.383E+00    0.103E+00
DAV:   2    -0.138478662180E+02    0.25392E-01   -0.59777E-02  6880   0.132E+00    0.370E-01
DAV:   3    -0.138439862190E+02    0.38800E-02   -0.10911E-02  8120   0.428E-01    0.271E-01
DAV:   4    -0.138436358764E+02    0.35034E-03   -0.84401E-04  8080   0.102E-01    0.566E-02
DAV:   5    -0.138436347290E+02    0.11474E-05   -0.36819E-05 10520   0.320E-02    0.149E-02
DAV:   6    -0.138436362986E+02   -0.15696E-05   -0.41805E-06  8280   0.950E-03    0.564E-03
DAV:   7    -0.138436358254E+02    0.47315E-06   -0.51133E-07 10400   0.228E-03    0.889E-04
DAV:   8    -0.138436358369E+02   -0.11509E-07   -0.71566E-08  8160   0.102E-03    0.301E-04
DAV:   9    -0.138436358149E+02    0.21987E-07   -0.82982E-09  9480   0.320E-04    0.155E-04
DAV:  10    -0.138436358166E+02   -0.16748E-08   -0.24768E-09  9000   0.163E-04
   2 F= -.13843636E+02 E0= -.13843636E+02  d E =-.155863E-01
 ZBRENT: can't locate minimum, use default step
 trial-energy change:   -0.015586  1 .order   -0.015554   -0.016795   -0.014314
 step:   4.0000(harm=  6.7693)  dis= 0.00000  next Energy=   -13.875452 (dE=-0.474E-01)
 bond charge predicted
       N       E                     dE             d eps       ncg     rms          rms(c)
DAV:   1    -0.141460007029E+02   -0.30236E+00   -0.62447E+00  6760   0.116E+01    0.304E+00
DAV:   2    -0.139132493849E+02    0.23275E+00   -0.55575E-01  6720   0.508E+00    0.110E+00
DAV:   3    -0.138780274903E+02    0.35222E-01   -0.10540E-01  7720   0.134E+00    0.780E-01
DAV:   4    -0.138750803670E+02    0.29471E-02   -0.74091E-03  8360   0.323E-01    0.156E-01
DAV:   5    -0.138750280455E+02    0.52322E-04   -0.33381E-04 10120   0.110E-01    0.652E-02
DAV:   6    -0.138750414322E+02   -0.13387E-04   -0.34947E-05  8280   0.304E-02    0.173E-02
DAV:   7    -0.138750413905E+02    0.41652E-07   -0.71096E-06  9400   0.103E-02    0.311E-03
DAV:   8    -0.138750414501E+02   -0.59604E-07   -0.51995E-07  8080   0.340E-03    0.905E-04
DAV:   9    -0.138750413616E+02    0.88558E-07   -0.11948E-07  9000   0.161E-03    0.317E-04
DAV:  10    -0.138750413659E+02   -0.43328E-08   -0.16206E-08  8880   0.436E-04
   3 F= -.13875041E+02 E0= -.13875041E+02  d E =-.469919E-01
 curvature:  -2.60 expect dE=-0.620E-02 dE for cont linesearch -0.620E-02
 ZBRENT: increasing intervall
 opt :  10.0000  next Energy=   -13.865032 (dE=-0.370E-01)
 bond charge predicted
       N       E                     dE             d eps       ncg     rms          rms(c)
DAV:   1    -0.149729924256E+02   -0.10980E+01   -0.25687E+01  6720   0.237E+01    0.607E+00
DAV:   2    -0.140146800819E+02    0.95831E+00   -0.23703E+00  6720   0.995E+00    0.219E+00
DAV:   3    -0.138692449011E+02    0.14544E+00   -0.43526E-01  7680   0.277E+00    0.145E+00
DAV:   4    -0.138584107740E+02    0.10834E-01   -0.27250E-02  8720   0.636E-01    0.354E-01
DAV:   5    -0.138581560452E+02    0.25473E-03   -0.87683E-04  9680   0.168E-01    0.152E-01
DAV:   6    -0.138582012638E+02   -0.45219E-04   -0.20347E-04  8200   0.729E-02    0.360E-02
DAV:   7    -0.138582000552E+02    0.12086E-05   -0.32530E-05  9880   0.228E-02    0.842E-03
DAV:   8    -0.138582002609E+02   -0.20572E-06   -0.16966E-06  8440   0.702E-03    0.230E-03
DAV:   9    -0.138582000045E+02    0.25637E-06   -0.46309E-07  9080   0.312E-03    0.689E-04
DAV:  10    -0.138582000054E+02   -0.81764E-09   -0.18217E-08  9400   0.564E-04
   4 F= -.13858200E+02 E0= -.13858200E+02  d E =-.301505E-01
 curvature:   4.21 expect dE= 0.384E-01 dE for cont linesearch  0.384E-01
 ZBRENT: bracketing found
 ZBRENT: interpolating
 opt :   6.0272  next Energy=   -13.881450 (dE=-0.534E-01)
 bond charge predicted
       N       E                     dE             d eps       ncg     rms          rms(c)
DAV:   1    -0.143587177314E+02   -0.50052E+00   -0.11180E+01  6720   0.163E+01    0.436E+00
DAV:   2    -0.139547245408E+02    0.40399E+00   -0.90554E-01  6720   0.487E+00    0.169E+00
DAV:   3    -0.138906694981E+02    0.64055E-01   -0.15520E-01  7800   0.168E+00    0.132E+00
DAV:   4    -0.138822746142E+02    0.83949E-02   -0.18889E-02  7600   0.453E-01    0.312E-01
DAV:   5    -0.138820638358E+02    0.21078E-03   -0.89039E-04 10640   0.146E-01    0.674E-02
DAV:   6    -0.138820608995E+02    0.29363E-05   -0.78243E-05  7920   0.377E-02    0.356E-02
DAV:   7    -0.138820639702E+02   -0.30707E-05   -0.10028E-05  9720   0.991E-03    0.464E-03
DAV:   8    -0.138820644860E+02   -0.51586E-06   -0.14446E-06  8080   0.696E-03    0.263E-03
DAV:   9    -0.138820647694E+02   -0.28337E-06   -0.23305E-07  9400   0.252E-03    0.115E-03
DAV:  10    -0.138820648079E+02   -0.38532E-07   -0.13039E-08  9640   0.549E-04    0.479E-04
DAV:  11    -0.138820647693E+02    0.38619E-07   -0.64777E-09  8640   0.369E-04    0.588E-05
DAV:  12    -0.138820647632E+02    0.61077E-08   -0.26139E-10  5280   0.835E-05
   5 F= -.13882065E+02 E0= -.13882065E+02  d E =-.540153E-01
 curvature:  -0.70 expect dE=-0.767E-05 dE for cont linesearch -0.767E-05
 ZBRENT: interpolating
 opt :   6.1697  next Energy=   -13.882096 (dE=-0.540E-01)
 bond charge predicted
       N       E                     dE             d eps       ncg     rms          rms(c)
DAV:   1    -0.138827100569E+02   -0.64529E-03   -0.14306E-02  6720   0.569E-01    0.149E-01
DAV:   2    -0.138821817318E+02    0.52833E-03   -0.12199E-03  6720   0.192E-01    0.562E-02
DAV:   3    -0.138821005073E+02    0.81224E-04   -0.22072E-04  7920   0.628E-02    0.413E-02
DAV:   4    -0.138820950079E+02    0.54994E-05   -0.19364E-05  7760   0.152E-02    0.887E-03
DAV:   5    -0.138820957662E+02   -0.75831E-06   -0.85564E-07 10640   0.506E-03    0.202E-03
DAV:   6    -0.138820958342E+02   -0.68017E-07   -0.80717E-08  8280   0.136E-03    0.945E-04
DAV:   7    -0.138820957690E+02    0.65157E-07   -0.12380E-08  9840   0.343E-04    0.194E-04
DAV:   8    -0.138820957813E+02   -0.12222E-07   -0.13743E-09  6080   0.175E-04    0.680E-05
DAV:   9    -0.138820957733E+02    0.79222E-08   -0.22338E-10  4480   0.554E-05
   6 F= -.13882096E+02 E0= -.13882096E+02  d E =-.540463E-01
 curvature:  -2.88 expect dE=-0.281E-09 dE for cont linesearch -0.281E-09
 ZBRENT: interpolating
 opt :   6.1693  next Energy=   -13.882096 (dE=-0.540E-01)
 bond charge predicted
       N       E                     dE             d eps       ncg     rms          rms(c)
DAV:   1    -0.138820957814E+02   -0.12551E-09   -0.12715E-07  6920   0.170E-03    0.445E-04
DAV:   2    -0.138820957874E+02   -0.60331E-08   -0.10592E-08  4240   0.566E-04    0.169E-04
DAV:   3    -0.138820957848E+02    0.26271E-08   -0.22834E-09  3880   0.199E-04    0.124E-04
DAV:   4    -0.138820957772E+02    0.76398E-08   -0.15685E-10  4160   0.551E-05    0.304E-05
DAV:   5    -0.138820957744E+02    0.27476E-08   -0.31847E-11  3800   0.280E-05
   7 F= -.13882096E+02 E0= -.13882096E+02  d E =-.540463E-01
 curvature:  -2.78 expect dE=-0.105E-12 dE for cont linesearch -0.105E-12
 trial: gam=-0.00000 g(F)=  0.359E-64 g(S)=  0.377E-13 ort = 0.252E-07 (trialstep = 0.203E+01)
 search vector abs. value=  0.100E-09
 reached required accuracy - stopping structural energy minimisation
