<?xml version="1.0" encoding="ISO-8859-1"?>
<modeling>
 <generator>
  <i name="program" type="string">vasp </i>
  <i name="version" type="string">5.4.4.18Apr17-6-g9f103f2a35  </i>
  <i name="subversion" type="string">(build Aug 14 2019 21:35:17) complex            parallel </i>
  <i name="platform" type="string">LinuxIFC </i>
  <i name="date" type="string">2020 11 06 </i>
  <i name="time" type="string">13:01:47 </i>
 </generator>
 <incar>
  <i type="string" name="SYSTEM">Br3CaCs</i>
  <i type="int" name="ISTART">     0</i>
  <i type="string" name="PREC">accurate</i>
  <i type="int" name="IALGO">    38</i>
  <i type="logical" name="ADDGRID"> T  </i>
  <i type="int" name="ICHARG">     2</i>
  <i type="int" name="NELM">   100</i>
  <i type="int" name="NELMIN">     5</i>
  <i type="int" name="IBRION">     8</i>
  <i name="EDIFF">      0.00000100</i>
  <i name="ENCUT">    650.00000000</i>
  <i type="logical" name="LREAL"> F  </i>
  <i type="int" name="ISMEAR">     0</i>
  <i name="SIGMA">      0.01000000</i>
  <i type="logical" name="LWAVE"> F  </i>
  <i type="logical" name="LCHARG"> F  </i>
  <v type="int" name="KPOINT_BSE">    -1     0     0     0</v>
  <i type="int" name="NELM">   100</i>
  <i type="logical" name="LPEAD"> T  </i>
  <i type="string" name="GGA">PS</i>
  <i type="logical" name="LEPSILON"> T  </i>
 </incar>
 <structure name="primitive_cell" >
  <crystal>
   <varray name="basis" >
    <v>       5.48724731       0.00000000       0.00000000 </v>
    <v>       0.00000000       5.48724731       0.00000000 </v>
    <v>       0.00000000       0.00000000       5.48724731 </v>
   </varray>
   <i name="volume">    165.22037447 </i>
   <varray name="rec_basis" >
    <v>       0.18224074       0.00000000       0.00000000 </v>
    <v>       0.00000000       0.18224074       0.00000000 </v>
    <v>       0.00000000       0.00000000       0.18224074 </v>
   </varray>
  </crystal>
  <varray name="positions" >
   <v>       0.00000000      -0.50000000      -0.50000000 </v>
   <v>      -0.50000000      -0.50000000      -0.50000000 </v>
   <v>      -0.50000000       0.00000000      -0.50000000 </v>
   <v>      -0.50000000      -0.50000000       0.00000000 </v>
   <v>       0.00000000       0.00000000       0.00000000 </v>
  </varray>
 </structure>
 <varray name="primitive_index" >
  <v type="int" >        1 </v>
  <v type="int" >        4 </v>
  <v type="int" >        2 </v>
  <v type="int" >        3 </v>
  <v type="int" >        5 </v>
 </varray>
 <kpoints>
  <generation param="Gamma">
   <v type="int" name="divisions">      12       12       12 </v>
   <v name="usershift">      0.00000000       0.00000000       0.00000000 </v>
   <v name="genvec1">      0.08333333       0.00000000       0.00000000 </v>
   <v name="genvec2">      0.00000000       0.08333333       0.00000000 </v>
   <v name="genvec3">      0.00000000       0.00000000       0.08333333 </v>
   <v name="shift">      0.00000000       0.00000000       0.00000000 </v>
  </generation>
  <varray name="kpointlist" >
   <v>       0.00000000       0.00000000       0.00000000 </v>
   <v>       0.08333333       0.00000000       0.00000000 </v>
   <v>       0.16666667       0.00000000       0.00000000 </v>
   <v>       0.25000000       0.00000000       0.00000000 </v>
   <v>       0.33333333       0.00000000       0.00000000 </v>
   <v>       0.41666667       0.00000000       0.00000000 </v>
   <v>       0.50000000       0.00000000       0.00000000 </v>
   <v>       0.08333333       0.08333333       0.00000000 </v>
   <v>       0.16666667       0.08333333       0.00000000 </v>
   <v>       0.25000000       0.08333333       0.00000000 </v>
   <v>       0.33333333       0.08333333       0.00000000 </v>
   <v>       0.41666667       0.08333333       0.00000000 </v>
   <v>       0.50000000       0.08333333       0.00000000 </v>
   <v>       0.16666667       0.16666667       0.00000000 </v>
   <v>       0.25000000       0.16666667       0.00000000 </v>
   <v>       0.33333333       0.16666667       0.00000000 </v>
   <v>       0.41666667       0.16666667       0.00000000 </v>
   <v>       0.50000000       0.16666667       0.00000000 </v>
   <v>       0.25000000       0.25000000       0.00000000 </v>
   <v>       0.33333333       0.25000000       0.00000000 </v>
   <v>       0.41666667       0.25000000       0.00000000 </v>
   <v>       0.50000000       0.25000000       0.00000000 </v>
   <v>       0.33333333       0.33333333       0.00000000 </v>
   <v>       0.41666667       0.33333333       0.00000000 </v>
   <v>       0.50000000       0.33333333       0.00000000 </v>
   <v>       0.41666667       0.41666667       0.00000000 </v>
   <v>       0.50000000       0.41666667       0.00000000 </v>
   <v>       0.50000000       0.50000000       0.00000000 </v>
   <v>       0.08333333       0.08333333       0.08333333 </v>
   <v>       0.16666667       0.08333333       0.08333333 </v>
   <v>       0.25000000       0.08333333       0.08333333 </v>
   <v>       0.33333333       0.08333333       0.08333333 </v>
   <v>       0.41666667       0.08333333       0.08333333 </v>
   <v>       0.50000000       0.08333333       0.08333333 </v>
   <v>       0.16666667       0.16666667       0.08333333 </v>
   <v>       0.25000000       0.16666667       0.08333333 </v>
   <v>       0.33333333       0.16666667       0.08333333 </v>
   <v>       0.41666667       0.16666667       0.08333333 </v>
   <v>       0.50000000       0.16666667       0.08333333 </v>
   <v>       0.25000000       0.25000000       0.08333333 </v>
   <v>       0.33333333       0.25000000       0.08333333 </v>
   <v>       0.41666667       0.25000000       0.08333333 </v>
   <v>       0.50000000       0.25000000       0.08333333 </v>
   <v>       0.33333333       0.33333333       0.08333333 </v>
   <v>       0.41666667       0.33333333       0.08333333 </v>
   <v>       0.50000000       0.33333333       0.08333333 </v>
   <v>       0.41666667       0.41666667       0.08333333 </v>
   <v>       0.50000000       0.41666667       0.08333333 </v>
   <v>       0.50000000       0.50000000       0.08333333 </v>
   <v>       0.16666667       0.16666667       0.16666667 </v>
   <v>       0.25000000       0.16666667       0.16666667 </v>
   <v>       0.33333333       0.16666667       0.16666667 </v>
   <v>       0.41666667       0.16666667       0.16666667 </v>
   <v>       0.50000000       0.16666667       0.16666667 </v>
   <v>       0.25000000       0.25000000       0.16666667 </v>
   <v>       0.33333333       0.25000000       0.16666667 </v>
   <v>       0.41666667       0.25000000       0.16666667 </v>
   <v>       0.50000000       0.25000000       0.16666667 </v>
   <v>       0.33333333       0.33333333       0.16666667 </v>
   <v>       0.41666667       0.33333333       0.16666667 </v>
   <v>       0.50000000       0.33333333       0.16666667 </v>
   <v>       0.41666667       0.41666667       0.16666667 </v>
   <v>       0.50000000       0.41666667       0.16666667 </v>
   <v>       0.50000000       0.50000000       0.16666667 </v>
   <v>       0.25000000       0.25000000       0.25000000 </v>
   <v>       0.33333333       0.25000000       0.25000000 </v>
   <v>       0.41666667       0.25000000       0.25000000 </v>
   <v>       0.50000000       0.25000000       0.25000000 </v>
   <v>       0.33333333       0.33333333       0.25000000 </v>
   <v>       0.41666667       0.33333333       0.25000000 </v>
   <v>       0.50000000       0.33333333       0.25000000 </v>
   <v>       0.41666667       0.41666667       0.25000000 </v>
   <v>       0.50000000       0.41666667       0.25000000 </v>
   <v>       0.50000000       0.50000000       0.25000000 </v>
   <v>       0.33333333       0.33333333       0.33333333 </v>
   <v>       0.41666667       0.33333333       0.33333333 </v>
   <v>       0.50000000       0.33333333       0.33333333 </v>
   <v>       0.41666667       0.41666667       0.33333333 </v>
   <v>       0.50000000       0.41666667       0.33333333 </v>
   <v>       0.50000000       0.50000000       0.33333333 </v>
   <v>       0.41666667       0.41666667       0.41666667 </v>
   <v>       0.50000000       0.41666667       0.41666667 </v>
   <v>       0.50000000       0.50000000       0.41666667 </v>
   <v>       0.50000000       0.50000000       0.50000000 </v>
  </varray>
  <varray name="weights" >
   <v>       0.00057870 </v>
   <v>       0.00347222 </v>
   <v>       0.00347222 </v>
   <v>       0.00347222 </v>
   <v>       0.00347222 </v>
   <v>       0.00347222 </v>
   <v>       0.00173611 </v>
   <v>       0.00694444 </v>
   <v>       0.01388889 </v>
   <v>       0.01388889 </v>
   <v>       0.01388889 </v>
   <v>       0.01388889 </v>
   <v>       0.00694444 </v>
   <v>       0.00694444 </v>
   <v>       0.01388889 </v>
   <v>       0.01388889 </v>
   <v>       0.01388889 </v>
   <v>       0.00694444 </v>
   <v>       0.00694444 </v>
   <v>       0.01388889 </v>
   <v>       0.01388889 </v>
   <v>       0.00694444 </v>
   <v>       0.00694444 </v>
   <v>       0.01388889 </v>
   <v>       0.00694444 </v>
   <v>       0.00694444 </v>
   <v>       0.00694444 </v>
   <v>       0.00173611 </v>
   <v>       0.00462963 </v>
   <v>       0.01388889 </v>
   <v>       0.01388889 </v>
   <v>       0.01388889 </v>
   <v>       0.01388889 </v>
   <v>       0.00694444 </v>
   <v>       0.01388889 </v>
   <v>       0.02777778 </v>
   <v>       0.02777778 </v>
   <v>       0.02777778 </v>
   <v>       0.01388889 </v>
   <v>       0.01388889 </v>
   <v>       0.02777778 </v>
   <v>       0.02777778 </v>
   <v>       0.01388889 </v>
   <v>       0.01388889 </v>
   <v>       0.02777778 </v>
   <v>       0.01388889 </v>
   <v>       0.01388889 </v>
   <v>       0.01388889 </v>
   <v>       0.00347222 </v>
   <v>       0.00462963 </v>
   <v>       0.01388889 </v>
   <v>       0.01388889 </v>
   <v>       0.01388889 </v>
   <v>       0.00694444 </v>
   <v>       0.01388889 </v>
   <v>       0.02777778 </v>
   <v>       0.02777778 </v>
   <v>       0.01388889 </v>
   <v>       0.01388889 </v>
   <v>       0.02777778 </v>
   <v>       0.01388889 </v>
   <v>       0.01388889 </v>
   <v>       0.01388889 </v>
   <v>       0.00347222 </v>
   <v>       0.00462963 </v>
   <v>       0.01388889 </v>
   <v>       0.01388889 </v>
   <v>       0.00694444 </v>
   <v>       0.01388889 </v>
   <v>       0.02777778 </v>
   <v>       0.01388889 </v>
   <v>       0.01388889 </v>
   <v>       0.01388889 </v>
   <v>       0.00347222 </v>
   <v>       0.00462963 </v>
   <v>       0.01388889 </v>
   <v>       0.00694444 </v>
   <v>       0.01388889 </v>
   <v>       0.01388889 </v>
   <v>       0.00347222 </v>
   <v>       0.00462963 </v>
   <v>       0.00694444 </v>
   <v>       0.00347222 </v>
   <v>       0.00057870 </v>
  </varray>
 </kpoints>
 <parameters>
  <separator name="general" >
   <i type="string" name="SYSTEM">Br3CaCs</i>
   <i type="logical" name="LCOMPAT"> F  </i>
  </separator>
  <separator name="electronic" >
   <i type="string" name="PREC">accura</i>
   <i name="ENMAX">    650.00000000</i>
   <i name="ENAUG">    503.85200000</i>
   <i name="EDIFF">      0.00000100</i>
   <i type="int" name="IALGO">    38</i>
   <i type="int" name="IWAVPR">    11</i>
   <i type="int" name="NBANDS">    40</i>
   <i name="NELECT">     42.00000000</i>
   <i type="int" name="TURBO">     0</i>
   <i type="int" name="IRESTART">     0</i>
   <i type="int" name="NREBOOT">     0</i>
   <i type="int" name="NMIN">     0</i>
   <i name="EREF">      0.00000000</i>
   <separator name="electronic smearing" >
    <i type="int" name="ISMEAR">     0</i>
    <i name="SIGMA">      0.01000000</i>
    <i name="KSPACING">      0.50000000</i>
    <i type="logical" name="KGAMMA"> T  </i>
   </separator>
   <separator name="electronic projectors" >
    <i type="logical" name="LREAL"> F  </i>
    <v name="ROPT">      0.00000000      0.00000000      0.00000000</v>
    <i type="int" name="LMAXPAW">  -100</i>
    <i type="int" name="LMAXMIX">     2</i>
    <i type="logical" name="NLSPLINE"> F  </i>
   </separator>
   <separator name="electronic startup" >
    <i type="int" name="ISTART">     0</i>
    <i type="int" name="ICHARG">     2</i>
    <i type="int" name="INIWAV">     1</i>
   </separator>
   <separator name="electronic spin" >
    <i type="int" name="ISPIN">     1</i>
    <i type="logical" name="LNONCOLLINEAR"> F  </i>
    <v name="MAGMOM">      1.00000000      1.00000000      1.00000000      1.00000000      1.00000000</v>
    <i name="NUPDOWN">     -1.00000000</i>
    <i type="logical" name="LSORBIT"> F  </i>
    <v name="SAXIS">      0.00000000      0.00000000      1.00000000</v>
    <i type="logical" name="LSPIRAL"> F  </i>
    <v name="QSPIRAL">      0.00000000      0.00000000      0.00000000</v>
    <i type="logical" name="LZEROZ"> F  </i>
   </separator>
   <separator name="electronic exchange-correlation" >
    <i type="logical" name="LASPH"> F  </i>
    <i type="logical" name="LMETAGGA"> F  </i>
   </separator>
   <separator name="electronic convergence" >
    <i type="int" name="NELM">   100</i>
    <i type="int" name="NELMDL">    -5</i>
    <i type="int" name="NELMIN">     5</i>
    <i name="ENINI">    650.00000000</i>
    <separator name="electronic convergence detail" >
     <i type="logical" name="LDIAG"> T  </i>
     <i type="logical" name="LSUBROT"> F  </i>
     <i name="WEIMIN">      0.00100000</i>
     <i name="EBREAK">      0.00000001</i>
     <i name="DEPER">      0.30000000</i>
     <i type="int" name="NRMM">     4</i>
     <i name="TIME">      0.40000000</i>
    </separator>
   </separator>
   <separator name="electronic mixer" >
    <i name="AMIX">      0.40000000</i>
    <i name="BMIX">      1.00000000</i>
    <i name="AMIN">      0.10000000</i>
    <i name="AMIX_MAG">      1.60000000</i>
    <i name="BMIX_MAG">      1.00000000</i>
    <separator name="electronic mixer details" >
     <i type="int" name="IMIX">     4</i>
     <i type="logical" name="MIXFIRST"> F  </i>
     <i type="int" name="MAXMIX">   -45</i>
     <i name="WC">    100.00000000</i>
     <i type="int" name="INIMIX">     1</i>
     <i type="int" name="MIXPRE">     1</i>
     <i type="int" name="MREMOVE">     5</i>
    </separator>
   </separator>
   <separator name="electronic dipolcorrection" >
    <i type="logical" name="LDIPOL"> F  </i>
    <i type="logical" name="LMONO"> F  </i>
    <i type="int" name="IDIPOL">     0</i>
    <i name="EPSILON">      1.00000000</i>
    <v name="DIPOL">   -100.00000000   -100.00000000   -100.00000000</v>
    <i name="EFIELD">      0.00000000</i>
   </separator>
  </separator>
  <separator name="grids" >
   <i type="int" name="NGX">    48</i>
   <i type="int" name="NGY">    48</i>
   <i type="int" name="NGZ">    48</i>
   <i type="int" name="NGXF">    96</i>
   <i type="int" name="NGYF">    96</i>
   <i type="int" name="NGZF">    96</i>
   <i type="logical" name="ADDGRID"> T  </i>
  </separator>
  <separator name="ionic" >
   <i type="int" name="NSW">     1</i>
   <i type="int" name="IBRION">     8</i>
   <i type="int" name="MDALGO">     0</i>
   <i type="int" name="ISIF">     2</i>
   <i name="PSTRESS">      0.00000000</i>
   <i name="EDIFFG">      0.00001000</i>
   <i type="int" name="NFREE">     0</i>
   <i name="POTIM">      0.50000000</i>
   <i name="SMASS">     -3.00000000</i>
   <i name="SCALEE">      1.00000000</i>
  </separator>
  <separator name="ionic md" >
   <i name="TEBEG">      0.00010000</i>
   <i name="TEEND">      0.00010000</i>
   <i type="int" name="NBLOCK">     1</i>
   <i type="int" name="KBLOCK">     1</i>
   <i type="int" name="NPACO">   256</i>
   <i name="APACO">     16.00000000</i>
  </separator>
  <separator name="symmetry" >
   <i type="int" name="ISYM">     2</i>
   <i name="SYMPREC">      0.00001000</i>
  </separator>
  <separator name="dos" >
   <i type="int" name="LORBIT">     0</i>
   <v name="RWIGS">     -1.00000000     -1.00000000     -1.00000000</v>
   <i type="int" name="NEDOS">   301</i>
   <i name="EMIN">     10.00000000</i>
   <i name="EMAX">    -10.00000000</i>
   <i name="EFERMI">      0.00000000</i>
  </separator>
  <separator name="writing" >
   <i type="int" name="NWRITE">     2</i>
   <i type="logical" name="LWAVE"> F  </i>
   <i type="logical" name="LDOWNSAMPLE"> F  </i>
   <i type="logical" name="LCHARG"> F  </i>
   <i type="logical" name="LPARD"> F  </i>
   <i type="logical" name="LVTOT"> F  </i>
   <i type="logical" name="LVHAR"> F  </i>
   <i type="logical" name="LELF"> F  </i>
   <i type="logical" name="LOPTICS"> F  </i>
   <v name="STM">      0.00000000      0.00000000      0.00000000      0.00000000      0.00000000      0.00000000      0.00000000</v>
  </separator>
  <separator name="performance" >
   <i type="int" name="NPAR">    40</i>
   <i type="int" name="NSIM">     4</i>
   <i type="int" name="NBLK">    -1</i>
   <i type="logical" name="LPLANE"> T  </i>
   <i type="logical" name="LSCALAPACK"> T  </i>
   <i type="logical" name="LSCAAWARE"> F  </i>
   <i type="logical" name="LSCALU"> F  </i>
   <i type="logical" name="LASYNC"> F  </i>
   <i type="logical" name="LORBITALREAL"> F  </i>
  </separator>
  <separator name="miscellaneous" >
   <i type="int" name="IDIOT">     3</i>
   <i type="int" name="ISPECIAL">     0</i>
   <i type="logical" name="LMUSIC"> F  </i>
   <v name="POMASS">     79.90400000    112.41100000    132.90000000</v>
   <v name="DARWINR">      0.00000000      0.00000000      0.00000000</v>
   <v name="DARWINV">      1.00000000      1.00000000      1.00000000</v>
   <i type="logical" name="LCORR"> T  </i>
  </separator>
  <i type="logical" name="GGA_COMPAT"> T  </i>
  <i type="logical" name="LBERRY"> F  </i>
  <i type="int" name="ICORELEVEL">     0</i>
  <i type="logical" name="LDAU"> F  </i>
  <i type="int" name="I_CONSTRAINED_M">     0</i>
  <separator name="electronic exchange-correlation" >
   <i type="string" name="GGA">PS</i>
   <i type="int" name="VOSKOWN">     0</i>
   <i type="logical" name="LHFCALC"> F  </i>
   <i type="string" name="PRECFOCK"></i>
   <i type="logical" name="LSYMGRAD"> F  </i>
   <i type="logical" name="LHFONE"> F  </i>
   <i type="logical" name="LRHFCALC"> F  </i>
   <i type="logical" name="LTHOMAS"> F  </i>
   <i type="logical" name="LMODELHF"> F  </i>
   <i name="ENCUT4O">     -1.00000000</i>
   <i type="int" name="EXXOEP">     0</i>
   <i type="int" name="FOURORBIT">     0</i>
   <i name="AEXX">      0.00000000</i>
   <i name="HFALPHA">      0.00000000</i>
   <i name="MCALPHA">      0.00000000</i>
   <i name="ALDAX">      1.00000000</i>
   <i name="AGGAX">      1.00000000</i>
   <i name="ALDAC">      1.00000000</i>
   <i name="AGGAC">      1.00000000</i>
   <i type="int" name="NKREDX">     1</i>
   <i type="int" name="NKREDY">     1</i>
   <i type="int" name="NKREDZ">     1</i>
   <i type="logical" name="SHIFTRED"> F  </i>
   <i type="logical" name="ODDONLY"> F  </i>
   <i type="logical" name="EVENONLY"> F  </i>
   <i type="int" name="LMAXFOCK">     0</i>
   <i type="int" name="NMAXFOCKAE">     0</i>
   <i type="logical" name="LFOCKAEDFT"> F  </i>
   <i name="HFSCREEN">      0.00000000</i>
   <i name="HFSCREENC">      0.00000000</i>
   <i type="int" name="NBANDSGWLOW">     0</i>
  </separator>
  <separator name="vdW DFT" >
   <i type="logical" name="LUSE_VDW"> F  </i>
   <i name="Zab_VDW">     -0.84910000</i>
   <i name="PARAM1">      0.12340000</i>
   <i name="PARAM2">      1.00000000</i>
   <i name="PARAM3">      0.00000000</i>
  </separator>
  <separator name="model GW" >
   <i type="int" name="MODEL_GW">     0</i>
   <i name="MODEL_EPS0">     19.82644494</i>
   <i name="MODEL_ALPHA">      1.00000000</i>
  </separator>
  <separator name="linear response parameters" >
   <i type="logical" name="LEPSILON"> T  </i>
   <i type="logical" name="LRPA"> F  </i>
   <i type="logical" name="LNABLA"> F  </i>
   <i type="logical" name="LVEL"> F  </i>
   <i type="int" name="KINTER">     0</i>
   <i name="CSHIFT">      0.10000000</i>
   <i name="OMEGAMAX">     -1.00000000</i>
   <i name="DEG_THRESHOLD">      0.00200000</i>
   <i name="RTIME">     -0.10000000</i>
   <i name="WPLASMAI">      0.00000000</i>
   <v name="DFIELD">      0.00000000      0.00000000      0.00000000</v>
   <v name="WPLASMA">      0.00000000      0.00000000      0.00000000      0.00000000      0.00000000      0.00000000      0.00000000      0.00000000      0.00000000</v>
  </separator>
  <separator name="orbital magnetization" >
   <i type="logical" name="NUCIND"> F  </i>
   <v name="MAGPOS">      0.00000000      0.00000000      0.00000000</v>
   <i type="logical" name="LNICSALL"> T  </i>
   <i type="logical" name="ORBITALMAG"> F  </i>
   <i type="logical" name="LMAGBLOCH"> F  </i>
   <i type="logical" name="LCHIMAG"> F  </i>
   <i type="logical" name="LGAUGE"> T  </i>
   <i type="int" name="MAGATOM">     0</i>
   <v name="MAGDIPOL">      0.00000000      0.00000000      0.00000000</v>
   <v name="AVECCONST">      0.00000000      0.00000000      0.00000000</v>
  </separator>
  <separator name="response functions" >
   <i type="logical" name="LADDER"> F  </i>
   <i type="logical" name="LRPAFORCE"> F  </i>
   <i type="logical" name="LFXC"> F  </i>
   <i type="logical" name="LHARTREE"> T  </i>
   <i type="int" name="IBSE">     0</i>
   <v type="int" name="KPOINT">    -1     0     0     0</v>
   <i type="logical" name="LTCTE"> F  </i>
   <i type="logical" name="LTETE"> F  </i>
   <i type="logical" name="LTRIPLET"> F  </i>
   <i type="logical" name="LFXCEPS"> F  </i>
   <i type="logical" name="LFXHEG"> F  </i>
   <i type="int" name="NATURALO">     2</i>
   <i type="logical" name="L2ORDER"> F  </i>
   <i type="logical" name="LMP2LT"> F  </i>
   <i type="logical" name="LUSEW"> F  </i>
   <i name="ENCUTGW">     -2.00000000</i>
   <i name="ENCUTGWSOFT">     -2.00000000</i>
   <i name="ENCUTLF">     -1.00000000</i>
   <i type="int" name="LMAXMP2">    -1</i>
   <i name="SCISSOR">      0.00000000</i>
   <i type="int" name="NOMEGA">     0</i>
   <i type="int" name="NOMEGAR">     0</i>
   <i type="int" name="NBANDSGW">    -1</i>
   <i type="int" name="NBANDSO">    -1</i>
   <i type="int" name="NBANDSV">    -1</i>
   <i type="int" name="NELM">   100</i>
   <i type="int" name="NELMHF">     1</i>
   <i type="int" name="DIM">     3</i>
   <i type="int" name="ANTIRES">     0</i>
   <i name="OMEGAMAX">    -30.00000000</i>
   <i name="OMEGAMIN">    -30.00000000</i>
   <i name="OMEGATL">   -200.00000000</i>
   <i type="int" name="OMEGAGRID">   140</i>
   <i name="CSHIFT">     -0.10000000</i>
   <i type="logical" name="SELFENERGY"> F  </i>
   <i type="logical" name="LSPECTRAL"> F  </i>
   <i type="logical" name="LSPECTRALGW"> F  </i>
   <i type="logical" name="LSINGLES"> F  </i>
   <i type="logical" name="LFERMIGW"> F  </i>
   <i type="logical" name="ODDONLYGW"> F  </i>
   <i type="logical" name="EVENONLYGW"> F  </i>
   <i type="int" name="NKREDLFX">     1</i>
   <i type="int" name="NKREDLFY">     1</i>
   <i type="int" name="NKREDLFZ">     1</i>
   <i type="int" name="MAXMEM">  2800</i>
   <i type="int" name="TELESCOPE">     0</i>
   <i type="int" name="TAUPAR">     1</i>
   <i type="int" name="OMEGAPAR">    -1</i>
   <i name="LAMBDA">      1.00000000</i>
  </separator>
  <separator name="External order field" >
   <i name="OFIELD_KAPPA">      0.00000000</i>
   <v name="OFIELD_K">      0.00000000      0.00000000      0.00000000</v>
   <i name="OFIELD_Q6_NEAR">      0.00000000</i>
   <i name="OFIELD_Q6_FAR">      0.00000000</i>
   <i name="OFIELD_A">      0.00000000</i>
  </separator>
 </parameters>
 <atominfo>
  <atoms>       5 </atoms>
  <types>       3 </types>
  <array name="atoms" >
   <dimension dim="1">ion</dimension>
   <field type="string">element</field>
   <field type="int">atomtype</field>
   <set>
    <rc><c>Br</c><c>   1</c></rc>
    <rc><c>Br</c><c>   1</c></rc>
    <rc><c>Br</c><c>   1</c></rc>
    <rc><c>Cd</c><c>   2</c></rc>
    <rc><c>Cs</c><c>   3</c></rc>
   </set>
  </array>
  <array name="atomtypes" >
   <dimension dim="1">type</dimension>
   <field type="int">atomspertype</field>
   <field type="string">element</field>
   <field>mass</field>
   <field>valence</field>
   <field type="string">pseudopotential</field>
   <set>
    <rc><c>   3</c><c>Br</c><c>     79.90400000</c><c>      7.00000000</c><c>  PAW_PBE Br 06Sep2000                  </c></rc>
    <rc><c>   1</c><c>Cd</c><c>    112.41100000</c><c>     12.00000000</c><c>  PAW_PBE Cd 06Sep2000                  </c></rc>
    <rc><c>   1</c><c>Cs</c><c>    132.90000000</c><c>      9.00000000</c><c>  PAW_PBE Cs_sv 08Apr2002               </c></rc>
   </set>
  </array>
 </atominfo>
 <structure name="initialpos" >
  <crystal>
   <varray name="basis" >
    <v>       5.48724731       0.00000000       0.00000000 </v>
    <v>       0.00000000       5.48724731       0.00000000 </v>
    <v>       0.00000000       0.00000000       5.48724731 </v>
   </varray>
   <i name="volume">    165.22037447 </i>
   <varray name="rec_basis" >
    <v>       0.18224074       0.00000000       0.00000000 </v>
    <v>       0.00000000       0.18224074       0.00000000 </v>
    <v>       0.00000000       0.00000000       0.18224074 </v>
   </varray>
  </crystal>
  <varray name="positions" >
   <v>       0.00000000       0.50000000       0.50000000 </v>
   <v>       0.50000000       0.00000000       0.50000000 </v>
   <v>       0.50000000       0.50000000       0.00000000 </v>
   <v>       0.50000000       0.50000000       0.50000000 </v>
   <v>       0.00000000       0.00000000       0.00000000 </v>
  </varray>
 </structure>
 <calculation>
  <scstep>
   <time name="dav">    2.94    2.94</time>
   <time name="total">    3.01    3.05</time>
   <energy>
    <i name="alphaZ">    147.65219059 </i>
    <i name="ewald">  -2189.25844277 </i>
    <i name="hartreedc">   -786.07937876 </i>
    <i name="XCdc">     48.52869217 </i>
    <i name="pawpsdc">   2504.31455449 </i>
    <i name="pawaedc">  -2445.19955573 </i>
    <i name="eentropy">     -0.00023557 </i>
    <i name="bandstr">    -16.58717912 </i>
    <i name="atom">   2952.98978932 </i>
    <i name="e_fr_energy">    216.36043462 </i>
    <i name="e_wo_entrp">    216.36067019 </i>
    <i name="e_0_energy">    216.36055241 </i>
   </energy>
  </scstep>
  <scstep>
   <time name="dav">    4.39    4.39</time>
   <time name="total">    4.39    4.39</time>
   <energy>
    <i name="e_fr_energy">     -9.94059582 </i>
    <i name="e_wo_entrp">     -9.94059582 </i>
    <i name="e_0_energy">     -9.94059582 </i>
   </energy>
  </scstep>
  <scstep>
   <time name="dav">    3.32    3.32</time>
   <time name="total">    3.32    3.32</time>
   <energy>
    <i name="e_fr_energy">    -14.69870472 </i>
    <i name="e_wo_entrp">    -14.69870472 </i>
    <i name="e_0_energy">    -14.69870472 </i>
   </energy>
  </scstep>
  <scstep>
   <time name="dav">    6.28    6.28</time>
   <time name="total">    6.28    6.28</time>
   <energy>
    <i name="e_fr_energy">    -14.71422638 </i>
    <i name="e_wo_entrp">    -14.71422638 </i>
    <i name="e_0_energy">    -14.71422638 </i>
   </energy>
  </scstep>
  <scstep>
   <time name="dav">    3.20    3.20</time>
   <time name="total">    3.37    3.37</time>
   <energy>
    <i name="e_fr_energy">    -14.71422696 </i>
    <i name="e_wo_entrp">    -14.71422696 </i>
    <i name="e_0_energy">    -14.71422696 </i>
   </energy>
  </scstep>
  <scstep>
   <time name="dav">    3.74    3.74</time>
   <time name="total">    3.97    3.97</time>
   <energy>
    <i name="e_fr_energy">    -14.00203165 </i>
    <i name="e_wo_entrp">    -14.00203165 </i>
    <i name="e_0_energy">    -14.00203165 </i>
   </energy>
  </scstep>
  <scstep>
   <time name="dav">    5.25    5.25</time>
   <time name="total">    5.48    5.48</time>
   <energy>
    <i name="e_fr_energy">    -13.88824303 </i>
    <i name="e_wo_entrp">    -13.88824303 </i>
    <i name="e_0_energy">    -13.88824303 </i>
   </energy>
  </scstep>
  <scstep>
   <time name="dav">    4.89    4.89</time>
   <time name="total">    5.12    5.12</time>
   <energy>
    <i name="e_fr_energy">    -13.88072679 </i>
    <i name="e_wo_entrp">    -13.88072679 </i>
    <i name="e_0_energy">    -13.88072679 </i>
   </energy>
  </scstep>
  <scstep>
   <time name="dav">    4.95    4.95</time>
   <time name="total">    5.18    5.18</time>
   <energy>
    <i name="e_fr_energy">    -13.88078146 </i>
    <i name="e_wo_entrp">    -13.88078146 </i>
    <i name="e_0_energy">    -13.88078146 </i>
   </energy>
  </scstep>
  <scstep>
   <time name="dav">    4.37    4.37</time>
   <time name="total">    4.61    4.61</time>
   <energy>
    <i name="e_fr_energy">    -13.88089342 </i>
    <i name="e_wo_entrp">    -13.88089342 </i>
    <i name="e_0_energy">    -13.88089342 </i>
   </energy>
  </scstep>
  <scstep>
   <time name="dav">    4.06    4.06</time>
   <time name="total">    4.28    4.29</time>
   <energy>
    <i name="e_fr_energy">    -13.88090613 </i>
    <i name="e_wo_entrp">    -13.88090613 </i>
    <i name="e_0_energy">    -13.88090613 </i>
   </energy>
  </scstep>
  <scstep>
   <time name="dav">    5.11    5.11</time>
   <time name="total">    5.17    5.17</time>
   <energy>
    <i name="alphaZ">    147.65219059 </i>
    <i name="ewald">  -2189.25844277 </i>
    <i name="hartreedc">   -775.74346499 </i>
    <i name="XCdc">     49.17660289 </i>
    <i name="pawpsdc">   2874.67437698 </i>
    <i name="pawaedc">  -2814.21563209 </i>
    <i name="eentropy">     -0.00000000 </i>
    <i name="bandstr">   -259.15632588 </i>
    <i name="atom">   2952.98978932 </i>
    <i name="e_fr_energy">    -13.88090596 </i>
    <i name="e_wo_entrp">    -13.88090596 </i>
    <i name="e_0_energy">    -13.88090596 </i>
   </energy>
  </scstep>
  <structure>
   <crystal>
    <varray name="basis" >
     <v>       5.48724731       0.00000000       0.00000000 </v>
     <v>       0.00000000       5.48724731       0.00000000 </v>
     <v>       0.00000000       0.00000000       5.48724731 </v>
    </varray>
    <i name="volume">    165.22037447 </i>
    <varray name="rec_basis" >
     <v>       0.18224074       0.00000000       0.00000000 </v>
     <v>       0.00000000       0.18224074       0.00000000 </v>
     <v>       0.00000000       0.00000000       0.18224074 </v>
    </varray>
   </crystal>
   <varray name="positions" >
    <v>       0.00000000       0.50000000       0.50000000 </v>
    <v>       0.50000000       0.00000000       0.50000000 </v>
    <v>       0.50000000       0.50000000       0.00000000 </v>
    <v>       0.50000000       0.50000000       0.50000000 </v>
    <v>       0.00000000       0.00000000       0.00000000 </v>
   </varray>
  </structure>
  <varray name="forces" >
   <v>       0.00000000       0.00000000       0.00000000 </v>
   <v>       0.00000000       0.00000000       0.00000000 </v>
   <v>       0.00000000       0.00000000       0.00000000 </v>
   <v>       0.00000000       0.00000000       0.00000000 </v>
   <v>       0.00000000       0.00000000       0.00000000 </v>
  </varray>
  <varray name="stress" >
   <v>      -0.05065593       0.00000000       0.00000000 </v>
   <v>       0.00000000      -0.05065593       0.00000000 </v>
   <v>      -0.00000000       0.00000000      -0.05065593 </v>
  </varray>
  <energy>
   <i name="e_fr_energy">    -13.88090596 </i>
   <i name="e_wo_entrp">    -13.88090596 </i>
   <i name="e_0_energy">     -0.00000000 </i>
  </energy>
  <scstep>
   <time name="total">    3.77    3.77</time>
   <energy>
    <i name="e_fr_energy">     -1.53130164 </i>
    <i name="e_wo_entrp">     -1.53130164 </i>
    <i name="e_0_energy">     -1.53130164 </i>
   </energy>
  </scstep>
  <scstep>
   <time name="total">    2.69    2.69</time>
   <energy>
    <i name="e_fr_energy">     -1.61278931 </i>
    <i name="e_wo_entrp">     -1.61278931 </i>
    <i name="e_0_energy">     -1.61278931 </i>
   </energy>
  </scstep>
  <scstep>
   <time name="total">    2.67    2.67</time>
   <energy>
    <i name="e_fr_energy">     -1.61283513 </i>
    <i name="e_wo_entrp">     -1.61283513 </i>
    <i name="e_0_energy">     -1.61283513 </i>
   </energy>
  </scstep>
  <scstep>
   <time name="total">    2.46    2.46</time>
   <energy>
    <i name="e_fr_energy">     -1.61283450 </i>
    <i name="e_wo_entrp">     -1.61283450 </i>
    <i name="e_0_energy">     -1.61283450 </i>
   </energy>
  </scstep>
  <scstep>
   <time name="total">    2.24    2.24</time>
   <energy>
    <i name="e_fr_energy">     -1.61283449 </i>
    <i name="e_wo_entrp">     -1.61283449 </i>
    <i name="e_0_energy">     -1.61283449 </i>
   </energy>
  </scstep>
  <scstep>
   <time name="total">    2.83    2.83</time>
   <energy>
    <i name="e_fr_energy">     -1.81962423 </i>
    <i name="e_wo_entrp">     -1.81962423 </i>
    <i name="e_0_energy">     -1.81962423 </i>
   </energy>
  </scstep>
  <scstep>
   <time name="total">    2.64    2.64</time>
   <energy>
    <i name="e_fr_energy">     -1.94490704 </i>
    <i name="e_wo_entrp">     -1.94490704 </i>
    <i name="e_0_energy">     -1.94490704 </i>
   </energy>
  </scstep>
  <scstep>
   <time name="total">    2.63    2.63</time>
   <energy>
    <i name="e_fr_energy">     -1.94499845 </i>
    <i name="e_wo_entrp">     -1.94499845 </i>
    <i name="e_0_energy">     -1.94499845 </i>
   </energy>
  </scstep>
  <scstep>
   <time name="total">    2.47    2.47</time>
   <energy>
    <i name="e_fr_energy">     -1.94499782 </i>
    <i name="e_wo_entrp">     -1.94499782 </i>
    <i name="e_0_energy">     -1.94499782 </i>
   </energy>
  </scstep>
  <scstep>
   <time name="total">    2.29    2.29</time>
   <energy>
    <i name="e_fr_energy">     -1.94499781 </i>
    <i name="e_wo_entrp">     -1.94499781 </i>
    <i name="e_0_energy">     -1.94499781 </i>
   </energy>
  </scstep>
  <scstep>
   <time name="total">    2.97    2.97</time>
   <energy>
    <i name="e_fr_energy">     -1.46555557 </i>
    <i name="e_wo_entrp">     -1.46555557 </i>
    <i name="e_0_energy">     -1.46555557 </i>
   </energy>
  </scstep>
  <scstep>
   <time name="total">    2.66    2.66</time>
   <energy>
    <i name="e_fr_energy">     -1.55530582 </i>
    <i name="e_wo_entrp">     -1.55530582 </i>
    <i name="e_0_energy">     -1.55530582 </i>
   </energy>
  </scstep>
  <scstep>
   <time name="total">    2.64    2.64</time>
   <energy>
    <i name="e_fr_energy">     -1.55537599 </i>
    <i name="e_wo_entrp">     -1.55537599 </i>
    <i name="e_0_energy">     -1.55537599 </i>
   </energy>
  </scstep>
  <scstep>
   <time name="total">    2.46    2.47</time>
   <energy>
    <i name="e_fr_energy">     -1.55537555 </i>
    <i name="e_wo_entrp">     -1.55537555 </i>
    <i name="e_0_energy">     -1.55537555 </i>
   </energy>
  </scstep>
  <scstep>
   <time name="total">    2.25    2.25</time>
   <energy>
    <i name="e_fr_energy">     -1.55537555 </i>
    <i name="e_wo_entrp">     -1.55537555 </i>
    <i name="e_0_energy">     -1.55537555 </i>
   </energy>
  </scstep>
  <varray name="epsilon_rpa" >
   <v>       4.73339990       0.00000000      -0.00000000 </v>
   <v>       0.00000000       4.73339990       0.00000000 </v>
   <v>      -0.00000000       0.00000000       4.73339990 </v>
  </varray>
  <kpoints>
   <generation param="Gamma">
    <v type="int" name="divisions">      12       12       12 </v>
    <v name="usershift">      0.00000000       0.00000000       0.00000000 </v>
    <v name="genvec1">      0.08333333       0.00000000       0.00000000 </v>
    <v name="genvec2">      0.00000000       0.08333333       0.00000000 </v>
    <v name="genvec3">      0.00000000       0.00000000       0.08333333 </v>
    <v name="shift">      0.00000000       0.00000000       0.00000000 </v>
   </generation>
   <varray name="kpointlist" >
    <v>       0.00000000       0.00000000       0.00000000 </v>
    <v>       0.08333333       0.00000000       0.00000000 </v>
    <v>       0.16666667       0.00000000       0.00000000 </v>
    <v>       0.25000000       0.00000000       0.00000000 </v>
    <v>       0.33333333       0.00000000       0.00000000 </v>
    <v>       0.41666667       0.00000000       0.00000000 </v>
    <v>       0.50000000       0.00000000       0.00000000 </v>
    <v>       0.00000000       0.08333333       0.00000000 </v>
    <v>       0.08333333       0.08333333       0.00000000 </v>
    <v>       0.16666667       0.08333333       0.00000000 </v>
    <v>       0.25000000       0.08333333       0.00000000 </v>
    <v>       0.33333333       0.08333333       0.00000000 </v>
    <v>       0.41666667       0.08333333       0.00000000 </v>
    <v>       0.50000000       0.08333333       0.00000000 </v>
    <v>       0.00000000       0.16666667       0.00000000 </v>
    <v>       0.08333333       0.16666667       0.00000000 </v>
    <v>       0.16666667       0.16666667       0.00000000 </v>
    <v>       0.25000000       0.16666667       0.00000000 </v>
    <v>       0.33333333       0.16666667       0.00000000 </v>
    <v>       0.41666667       0.16666667       0.00000000 </v>
    <v>       0.50000000       0.16666667       0.00000000 </v>
    <v>       0.00000000       0.25000000       0.00000000 </v>
    <v>       0.08333333       0.25000000       0.00000000 </v>
    <v>       0.16666667       0.25000000       0.00000000 </v>
    <v>       0.25000000       0.25000000       0.00000000 </v>
    <v>       0.33333333       0.25000000       0.00000000 </v>
    <v>       0.41666667       0.25000000       0.00000000 </v>
    <v>       0.50000000       0.25000000       0.00000000 </v>
    <v>       0.00000000       0.33333333       0.00000000 </v>
    <v>       0.08333333       0.33333333       0.00000000 </v>
    <v>       0.16666667       0.33333333       0.00000000 </v>
    <v>       0.25000000       0.33333333       0.00000000 </v>
    <v>       0.33333333       0.33333333       0.00000000 </v>
    <v>       0.41666667       0.33333333       0.00000000 </v>
    <v>       0.50000000       0.33333333       0.00000000 </v>
    <v>       0.00000000       0.41666667       0.00000000 </v>
    <v>       0.08333333       0.41666667       0.00000000 </v>
    <v>       0.16666667       0.41666667       0.00000000 </v>
    <v>       0.25000000       0.41666667       0.00000000 </v>
    <v>       0.33333333       0.41666667       0.00000000 </v>
    <v>       0.41666667       0.41666667       0.00000000 </v>
    <v>       0.50000000       0.41666667       0.00000000 </v>
    <v>       0.00000000       0.50000000       0.00000000 </v>
    <v>       0.08333333       0.50000000       0.00000000 </v>
    <v>       0.16666667       0.50000000       0.00000000 </v>
    <v>       0.25000000       0.50000000       0.00000000 </v>
    <v>       0.33333333       0.50000000       0.00000000 </v>
    <v>       0.41666667       0.50000000       0.00000000 </v>
    <v>       0.50000000       0.50000000       0.00000000 </v>
    <v>       0.00000000       0.08333333       0.08333333 </v>
    <v>       0.08333333       0.08333333       0.08333333 </v>
    <v>       0.16666667       0.08333333       0.08333333 </v>
    <v>       0.25000000       0.08333333       0.08333333 </v>
    <v>       0.33333333       0.08333333       0.08333333 </v>
    <v>       0.41666667       0.08333333       0.08333333 </v>
    <v>       0.50000000       0.08333333       0.08333333 </v>
    <v>       0.00000000       0.16666667       0.08333333 </v>
    <v>       0.08333333       0.16666667       0.08333333 </v>
    <v>       0.16666667       0.16666667       0.08333333 </v>
    <v>       0.25000000       0.16666667       0.08333333 </v>
    <v>       0.33333333       0.16666667       0.08333333 </v>
    <v>       0.41666667       0.16666667       0.08333333 </v>
    <v>       0.50000000       0.16666667       0.08333333 </v>
    <v>       0.00000000       0.25000000       0.08333333 </v>
    <v>       0.08333333       0.25000000       0.08333333 </v>
    <v>       0.16666667       0.25000000       0.08333333 </v>
    <v>       0.25000000       0.25000000       0.08333333 </v>
    <v>       0.33333333       0.25000000       0.08333333 </v>
    <v>       0.41666667       0.25000000       0.08333333 </v>
    <v>       0.50000000       0.25000000       0.08333333 </v>
    <v>       0.00000000       0.33333333       0.08333333 </v>
    <v>       0.08333333       0.33333333       0.08333333 </v>
    <v>       0.16666667       0.33333333       0.08333333 </v>
    <v>       0.25000000       0.33333333       0.08333333 </v>
    <v>       0.33333333       0.33333333       0.08333333 </v>
    <v>       0.41666667       0.33333333       0.08333333 </v>
    <v>       0.50000000       0.33333333       0.08333333 </v>
    <v>       0.00000000       0.41666667       0.08333333 </v>
    <v>       0.08333333       0.41666667       0.08333333 </v>
    <v>       0.16666667       0.41666667       0.08333333 </v>
    <v>       0.25000000       0.41666667       0.08333333 </v>
    <v>       0.33333333       0.41666667       0.08333333 </v>
    <v>       0.41666667       0.41666667       0.08333333 </v>
    <v>       0.50000000       0.41666667       0.08333333 </v>
    <v>       0.00000000       0.50000000       0.08333333 </v>
    <v>       0.08333333       0.50000000       0.08333333 </v>
    <v>       0.16666667       0.50000000       0.08333333 </v>
    <v>       0.25000000       0.50000000       0.08333333 </v>
    <v>       0.33333333       0.50000000       0.08333333 </v>
    <v>       0.41666667       0.50000000       0.08333333 </v>
    <v>       0.50000000       0.50000000       0.08333333 </v>
    <v>       0.00000000       0.16666667       0.16666667 </v>
    <v>       0.08333333       0.16666667       0.16666667 </v>
    <v>       0.16666667       0.16666667       0.16666667 </v>
    <v>       0.25000000       0.16666667       0.16666667 </v>
    <v>       0.33333333       0.16666667       0.16666667 </v>
    <v>       0.41666667       0.16666667       0.16666667 </v>
    <v>       0.50000000       0.16666667       0.16666667 </v>
    <v>       0.00000000       0.25000000       0.16666667 </v>
    <v>       0.08333333       0.25000000       0.16666667 </v>
    <v>       0.16666667       0.25000000       0.16666667 </v>
    <v>       0.25000000       0.25000000       0.16666667 </v>
    <v>       0.33333333       0.25000000       0.16666667 </v>
    <v>       0.41666667       0.25000000       0.16666667 </v>
    <v>       0.50000000       0.25000000       0.16666667 </v>
    <v>       0.00000000       0.33333333       0.16666667 </v>
    <v>       0.08333333       0.33333333       0.16666667 </v>
    <v>       0.16666667       0.33333333       0.16666667 </v>
    <v>       0.25000000       0.33333333       0.16666667 </v>
    <v>       0.33333333       0.33333333       0.16666667 </v>
    <v>       0.41666667       0.33333333       0.16666667 </v>
    <v>       0.50000000       0.33333333       0.16666667 </v>
    <v>       0.00000000       0.41666667       0.16666667 </v>
    <v>       0.08333333       0.41666667       0.16666667 </v>
    <v>       0.16666667       0.41666667       0.16666667 </v>
    <v>       0.25000000       0.41666667       0.16666667 </v>
    <v>       0.33333333       0.41666667       0.16666667 </v>
    <v>       0.41666667       0.41666667       0.16666667 </v>
    <v>       0.50000000       0.41666667       0.16666667 </v>
    <v>       0.00000000       0.50000000       0.16666667 </v>
    <v>       0.08333333       0.50000000       0.16666667 </v>
    <v>       0.16666667       0.50000000       0.16666667 </v>
    <v>       0.25000000       0.50000000       0.16666667 </v>
    <v>       0.33333333       0.50000000       0.16666667 </v>
    <v>       0.41666667       0.50000000       0.16666667 </v>
    <v>       0.50000000       0.50000000       0.16666667 </v>
    <v>       0.00000000       0.25000000       0.25000000 </v>
    <v>       0.08333333       0.25000000       0.25000000 </v>
    <v>       0.16666667       0.25000000       0.25000000 </v>
    <v>       0.25000000       0.25000000       0.25000000 </v>
    <v>       0.33333333       0.25000000       0.25000000 </v>
    <v>       0.41666667       0.25000000       0.25000000 </v>
    <v>       0.50000000       0.25000000       0.25000000 </v>
    <v>       0.00000000       0.33333333       0.25000000 </v>
    <v>       0.08333333       0.33333333       0.25000000 </v>
    <v>       0.16666667       0.33333333       0.25000000 </v>
    <v>       0.25000000       0.33333333       0.25000000 </v>
    <v>       0.33333333       0.33333333       0.25000000 </v>
    <v>       0.41666667       0.33333333       0.25000000 </v>
    <v>       0.50000000       0.33333333       0.25000000 </v>
    <v>       0.00000000       0.41666667       0.25000000 </v>
    <v>       0.08333333       0.41666667       0.25000000 </v>
    <v>       0.16666667       0.41666667       0.25000000 </v>
    <v>       0.25000000       0.41666667       0.25000000 </v>
    <v>       0.33333333       0.41666667       0.25000000 </v>
    <v>       0.41666667       0.41666667       0.25000000 </v>
    <v>       0.50000000       0.41666667       0.25000000 </v>
    <v>       0.00000000       0.50000000       0.25000000 </v>
    <v>       0.08333333       0.50000000       0.25000000 </v>
    <v>       0.16666667       0.50000000       0.25000000 </v>
    <v>       0.25000000       0.50000000       0.25000000 </v>
    <v>       0.33333333       0.50000000       0.25000000 </v>
    <v>       0.41666667       0.50000000       0.25000000 </v>
    <v>       0.50000000       0.50000000       0.25000000 </v>
    <v>       0.00000000       0.33333333       0.33333333 </v>
    <v>       0.08333333       0.33333333       0.33333333 </v>
    <v>       0.16666667       0.33333333       0.33333333 </v>
    <v>       0.25000000       0.33333333       0.33333333 </v>
    <v>       0.33333333       0.33333333       0.33333333 </v>
    <v>       0.41666667       0.33333333       0.33333333 </v>
    <v>       0.50000000       0.33333333       0.33333333 </v>
    <v>       0.00000000       0.41666667       0.33333333 </v>
    <v>       0.08333333       0.41666667       0.33333333 </v>
    <v>       0.16666667       0.41666667       0.33333333 </v>
    <v>       0.25000000       0.41666667       0.33333333 </v>
    <v>       0.33333333       0.41666667       0.33333333 </v>
    <v>       0.41666667       0.41666667       0.33333333 </v>
    <v>       0.50000000       0.41666667       0.33333333 </v>
    <v>       0.00000000       0.50000000       0.33333333 </v>
    <v>       0.08333333       0.50000000       0.33333333 </v>
    <v>       0.16666667       0.50000000       0.33333333 </v>
    <v>       0.25000000       0.50000000       0.33333333 </v>
    <v>       0.33333333       0.50000000       0.33333333 </v>
    <v>       0.41666667       0.50000000       0.33333333 </v>
    <v>       0.50000000       0.50000000       0.33333333 </v>
    <v>       0.00000000       0.41666667       0.41666667 </v>
    <v>       0.08333333       0.41666667       0.41666667 </v>
    <v>       0.16666667       0.41666667       0.41666667 </v>
    <v>       0.25000000       0.41666667       0.41666667 </v>
    <v>       0.33333333       0.41666667       0.41666667 </v>
    <v>       0.41666667       0.41666667       0.41666667 </v>
    <v>       0.50000000       0.41666667       0.41666667 </v>
    <v>       0.00000000       0.50000000       0.41666667 </v>
    <v>       0.08333333       0.50000000       0.41666667 </v>
    <v>       0.16666667       0.50000000       0.41666667 </v>
    <v>       0.25000000       0.50000000       0.41666667 </v>
    <v>       0.33333333       0.50000000       0.41666667 </v>
    <v>       0.41666667       0.50000000       0.41666667 </v>
    <v>       0.50000000       0.50000000       0.41666667 </v>
    <v>       0.00000000       0.50000000       0.50000000 </v>
    <v>       0.08333333       0.50000000       0.50000000 </v>
    <v>       0.16666667       0.50000000       0.50000000 </v>
    <v>       0.25000000       0.50000000       0.50000000 </v>
    <v>       0.33333333       0.50000000       0.50000000 </v>
    <v>       0.41666667       0.50000000       0.50000000 </v>
    <v>       0.50000000       0.50000000       0.50000000 </v>
   </varray>
   <varray name="weights" >
    <v>       0.00057870 </v>
    <v>       0.00115741 </v>
    <v>       0.00115741 </v>
    <v>       0.00115741 </v>
    <v>       0.00115741 </v>
    <v>       0.00115741 </v>
    <v>       0.00057870 </v>
    <v>       0.00231481 </v>
    <v>       0.00462963 </v>
    <v>       0.00462963 </v>
    <v>       0.00462963 </v>
    <v>       0.00462963 </v>
    <v>       0.00462963 </v>
    <v>       0.00231481 </v>
    <v>       0.00231481 </v>
    <v>       0.00462963 </v>
    <v>       0.00462963 </v>
    <v>       0.00462963 </v>
    <v>       0.00462963 </v>
    <v>       0.00462963 </v>
    <v>       0.00231481 </v>
    <v>       0.00231481 </v>
    <v>       0.00462963 </v>
    <v>       0.00462963 </v>
    <v>       0.00462963 </v>
    <v>       0.00462963 </v>
    <v>       0.00462963 </v>
    <v>       0.00231481 </v>
    <v>       0.00231481 </v>
    <v>       0.00462963 </v>
    <v>       0.00462963 </v>
    <v>       0.00462963 </v>
    <v>       0.00462963 </v>
    <v>       0.00462963 </v>
    <v>       0.00231481 </v>
    <v>       0.00231481 </v>
    <v>       0.00462963 </v>
    <v>       0.00462963 </v>
    <v>       0.00462963 </v>
    <v>       0.00462963 </v>
    <v>       0.00462963 </v>
    <v>       0.00231481 </v>
    <v>       0.00115741 </v>
    <v>       0.00231481 </v>
    <v>       0.00231481 </v>
    <v>       0.00231481 </v>
    <v>       0.00231481 </v>
    <v>       0.00231481 </v>
    <v>       0.00115741 </v>
    <v>       0.00231481 </v>
    <v>       0.00462963 </v>
    <v>       0.00462963 </v>
    <v>       0.00462963 </v>
    <v>       0.00462963 </v>
    <v>       0.00462963 </v>
    <v>       0.00231481 </v>
    <v>       0.00462963 </v>
    <v>       0.00925926 </v>
    <v>       0.00925926 </v>
    <v>       0.00925926 </v>
    <v>       0.00925926 </v>
    <v>       0.00925926 </v>
    <v>       0.00462963 </v>
    <v>       0.00462963 </v>
    <v>       0.00925926 </v>
    <v>       0.00925926 </v>
    <v>       0.00925926 </v>
    <v>       0.00925926 </v>
    <v>       0.00925926 </v>
    <v>       0.00462963 </v>
    <v>       0.00462963 </v>
    <v>       0.00925926 </v>
    <v>       0.00925926 </v>
    <v>       0.00925926 </v>
    <v>       0.00925926 </v>
    <v>       0.00925926 </v>
    <v>       0.00462963 </v>
    <v>       0.00462963 </v>
    <v>       0.00925926 </v>
    <v>       0.00925926 </v>
    <v>       0.00925926 </v>
    <v>       0.00925926 </v>
    <v>       0.00925926 </v>
    <v>       0.00462963 </v>
    <v>       0.00231481 </v>
    <v>       0.00462963 </v>
    <v>       0.00462963 </v>
    <v>       0.00462963 </v>
    <v>       0.00462963 </v>
    <v>       0.00462963 </v>
    <v>       0.00231481 </v>
    <v>       0.00231481 </v>
    <v>       0.00462963 </v>
    <v>       0.00462963 </v>
    <v>       0.00462963 </v>
    <v>       0.00462963 </v>
    <v>       0.00462963 </v>
    <v>       0.00231481 </v>
    <v>       0.00462963 </v>
    <v>       0.00925926 </v>
    <v>       0.00925926 </v>
    <v>       0.00925926 </v>
    <v>       0.00925926 </v>
    <v>       0.00925926 </v>
    <v>       0.00462963 </v>
    <v>       0.00462963 </v>
    <v>       0.00925926 </v>
    <v>       0.00925926 </v>
    <v>       0.00925926 </v>
    <v>       0.00925926 </v>
    <v>       0.00925926 </v>
    <v>       0.00462963 </v>
    <v>       0.00462963 </v>
    <v>       0.00925926 </v>
    <v>       0.00925926 </v>
    <v>       0.00925926 </v>
    <v>       0.00925926 </v>
    <v>       0.00925926 </v>
    <v>       0.00462963 </v>
    <v>       0.00231481 </v>
    <v>       0.00462963 </v>
    <v>       0.00462963 </v>
    <v>       0.00462963 </v>
    <v>       0.00462963 </v>
    <v>       0.00462963 </v>
    <v>       0.00231481 </v>
    <v>       0.00231481 </v>
    <v>       0.00462963 </v>
    <v>       0.00462963 </v>
    <v>       0.00462963 </v>
    <v>       0.00462963 </v>
    <v>       0.00462963 </v>
    <v>       0.00231481 </v>
    <v>       0.00462963 </v>
    <v>       0.00925926 </v>
    <v>       0.00925926 </v>
    <v>       0.00925926 </v>
    <v>       0.00925926 </v>
    <v>       0.00925926 </v>
    <v>       0.00462963 </v>
    <v>       0.00462963 </v>
    <v>       0.00925926 </v>
    <v>       0.00925926 </v>
    <v>       0.00925926 </v>
    <v>       0.00925926 </v>
    <v>       0.00925926 </v>
    <v>       0.00462963 </v>
    <v>       0.00231481 </v>
    <v>       0.00462963 </v>
    <v>       0.00462963 </v>
    <v>       0.00462963 </v>
    <v>       0.00462963 </v>
    <v>       0.00462963 </v>
    <v>       0.00231481 </v>
    <v>       0.00231481 </v>
    <v>       0.00462963 </v>
    <v>       0.00462963 </v>
    <v>       0.00462963 </v>
    <v>       0.00462963 </v>
    <v>       0.00462963 </v>
    <v>       0.00231481 </v>
    <v>       0.00462963 </v>
    <v>       0.00925926 </v>
    <v>       0.00925926 </v>
    <v>       0.00925926 </v>
    <v>       0.00925926 </v>
    <v>       0.00925926 </v>
    <v>       0.00462963 </v>
    <v>       0.00231481 </v>
    <v>       0.00462963 </v>
    <v>       0.00462963 </v>
    <v>       0.00462963 </v>
    <v>       0.00462963 </v>
    <v>       0.00462963 </v>
    <v>       0.00231481 </v>
    <v>       0.00231481 </v>
    <v>       0.00462963 </v>
    <v>       0.00462963 </v>
    <v>       0.00462963 </v>
    <v>       0.00462963 </v>
    <v>       0.00462963 </v>
    <v>       0.00231481 </v>
    <v>       0.00231481 </v>
    <v>       0.00462963 </v>
    <v>       0.00462963 </v>
    <v>       0.00462963 </v>
    <v>       0.00462963 </v>
    <v>       0.00462963 </v>
    <v>       0.00231481 </v>
    <v>       0.00057870 </v>
    <v>       0.00115741 </v>
    <v>       0.00115741 </v>
    <v>       0.00115741 </v>
    <v>       0.00115741 </v>
    <v>       0.00115741 </v>
    <v>       0.00057870 </v>
   </varray>
  </kpoints>
  <scstep>
   <time name="total">    6.30    6.30</time>
   <energy>
    <i name="e_fr_energy">     -1.60488823 </i>
    <i name="e_wo_entrp">     -1.60488823 </i>
    <i name="e_0_energy">     -1.60488823 </i>
   </energy>
  </scstep>
  <scstep>
   <time name="total">    6.84    6.84</time>
   <energy>
    <i name="e_fr_energy">     -1.70433341 </i>
    <i name="e_wo_entrp">     -1.70433341 </i>
    <i name="e_0_energy">     -1.70433341 </i>
   </energy>
  </scstep>
  <scstep>
   <time name="total">    6.72    6.72</time>
   <energy>
    <i name="e_fr_energy">     -1.60722283 </i>
    <i name="e_wo_entrp">     -1.60722283 </i>
    <i name="e_0_energy">     -1.60722283 </i>
   </energy>
  </scstep>
  <scstep>
   <time name="total">    9.32    9.32</time>
   <energy>
    <i name="e_fr_energy">     -1.64870277 </i>
    <i name="e_wo_entrp">     -1.64870277 </i>
    <i name="e_0_energy">     -1.64870277 </i>
   </energy>
  </scstep>
  <scstep>
   <time name="total">    7.13    7.13</time>
   <energy>
    <i name="e_fr_energy">     -1.68725431 </i>
    <i name="e_wo_entrp">     -1.68725431 </i>
    <i name="e_0_energy">     -1.68725431 </i>
   </energy>
  </scstep>
  <scstep>
   <time name="total">    8.40    8.40</time>
   <energy>
    <i name="e_fr_energy">     -1.68898622 </i>
    <i name="e_wo_entrp">     -1.68898622 </i>
    <i name="e_0_energy">     -1.68898622 </i>
   </energy>
  </scstep>
  <scstep>
   <time name="total">    8.55    8.55</time>
   <energy>
    <i name="e_fr_energy">     -1.69194470 </i>
    <i name="e_wo_entrp">     -1.69194470 </i>
    <i name="e_0_energy">     -1.69194470 </i>
   </energy>
  </scstep>
  <scstep>
   <time name="total">    8.67    8.67</time>
   <energy>
    <i name="e_fr_energy">     -1.69230237 </i>
    <i name="e_wo_entrp">     -1.69230237 </i>
    <i name="e_0_energy">     -1.69230237 </i>
   </energy>
  </scstep>
  <scstep>
   <time name="total">    8.67    8.67</time>
   <energy>
    <i name="e_fr_energy">     -1.69229628 </i>
    <i name="e_wo_entrp">     -1.69229628 </i>
    <i name="e_0_energy">     -1.69229628 </i>
   </energy>
  </scstep>
  <scstep>
   <time name="total">    8.59    8.58</time>
   <energy>
    <i name="e_fr_energy">     -1.69230568 </i>
    <i name="e_wo_entrp">     -1.69230568 </i>
    <i name="e_0_energy">     -1.69230568 </i>
   </energy>
  </scstep>
  <scstep>
   <time name="total">    8.41    8.41</time>
   <energy>
    <i name="e_fr_energy">     -1.69230209 </i>
    <i name="e_wo_entrp">     -1.69230209 </i>
    <i name="e_0_energy">     -1.69230209 </i>
   </energy>
  </scstep>
  <scstep>
   <time name="total">    7.88    7.88</time>
   <energy>
    <i name="e_fr_energy">     -1.69230166 </i>
    <i name="e_wo_entrp">     -1.69230166 </i>
    <i name="e_0_energy">     -1.69230166 </i>
   </energy>
  </scstep>
  <kpoints>
   <generation param="Gamma">
    <v type="int" name="divisions">      12       12       12 </v>
    <v name="usershift">      0.00000000       0.00000000       0.00000000 </v>
    <v name="genvec1">      0.08333333       0.00000000       0.00000000 </v>
    <v name="genvec2">      0.00000000       0.08333333       0.00000000 </v>
    <v name="genvec3">      0.00000000       0.00000000       0.08333333 </v>
    <v name="shift">      0.00000000       0.00000000       0.00000000 </v>
   </generation>
   <varray name="kpointlist" >
    <v>       0.00000000       0.00000000       0.00000000 </v>
    <v>       0.08333333       0.00000000       0.00000000 </v>
    <v>       0.16666667       0.00000000       0.00000000 </v>
    <v>       0.25000000       0.00000000       0.00000000 </v>
    <v>       0.33333333       0.00000000       0.00000000 </v>
    <v>       0.41666667       0.00000000       0.00000000 </v>
    <v>       0.50000000       0.00000000       0.00000000 </v>
    <v>       0.00000000       0.08333333       0.00000000 </v>
    <v>       0.08333333       0.08333333       0.00000000 </v>
    <v>       0.16666667       0.08333333       0.00000000 </v>
    <v>       0.25000000       0.08333333       0.00000000 </v>
    <v>       0.33333333       0.08333333       0.00000000 </v>
    <v>       0.41666667       0.08333333       0.00000000 </v>
    <v>       0.50000000       0.08333333       0.00000000 </v>
    <v>       0.00000000       0.16666667       0.00000000 </v>
    <v>       0.08333333       0.16666667       0.00000000 </v>
    <v>       0.16666667       0.16666667       0.00000000 </v>
    <v>       0.25000000       0.16666667       0.00000000 </v>
    <v>       0.33333333       0.16666667       0.00000000 </v>
    <v>       0.41666667       0.16666667       0.00000000 </v>
    <v>       0.50000000       0.16666667       0.00000000 </v>
    <v>       0.00000000       0.25000000       0.00000000 </v>
    <v>       0.08333333       0.25000000       0.00000000 </v>
    <v>       0.16666667       0.25000000       0.00000000 </v>
    <v>       0.25000000       0.25000000       0.00000000 </v>
    <v>       0.33333333       0.25000000       0.00000000 </v>
    <v>       0.41666667       0.25000000       0.00000000 </v>
    <v>       0.50000000       0.25000000       0.00000000 </v>
    <v>       0.00000000       0.33333333       0.00000000 </v>
    <v>       0.08333333       0.33333333       0.00000000 </v>
    <v>       0.16666667       0.33333333       0.00000000 </v>
    <v>       0.25000000       0.33333333       0.00000000 </v>
    <v>       0.33333333       0.33333333       0.00000000 </v>
    <v>       0.41666667       0.33333333       0.00000000 </v>
    <v>       0.50000000       0.33333333       0.00000000 </v>
    <v>       0.00000000       0.41666667       0.00000000 </v>
    <v>       0.08333333       0.41666667       0.00000000 </v>
    <v>       0.16666667       0.41666667       0.00000000 </v>
    <v>       0.25000000       0.41666667       0.00000000 </v>
    <v>       0.33333333       0.41666667       0.00000000 </v>
    <v>       0.41666667       0.41666667       0.00000000 </v>
    <v>       0.50000000       0.41666667       0.00000000 </v>
    <v>       0.00000000       0.50000000       0.00000000 </v>
    <v>       0.08333333       0.50000000       0.00000000 </v>
    <v>       0.16666667       0.50000000       0.00000000 </v>
    <v>       0.25000000       0.50000000       0.00000000 </v>
    <v>       0.33333333       0.50000000       0.00000000 </v>
    <v>       0.41666667       0.50000000       0.00000000 </v>
    <v>       0.50000000       0.50000000       0.00000000 </v>
    <v>       0.08333333       0.00000000       0.08333333 </v>
    <v>       0.16666667       0.00000000       0.08333333 </v>
    <v>       0.25000000       0.00000000       0.08333333 </v>
    <v>       0.33333333       0.00000000       0.08333333 </v>
    <v>       0.41666667       0.00000000       0.08333333 </v>
    <v>       0.50000000       0.00000000       0.08333333 </v>
    <v>       0.08333333       0.08333333       0.08333333 </v>
    <v>       0.16666667       0.08333333       0.08333333 </v>
    <v>       0.25000000       0.08333333       0.08333333 </v>
    <v>       0.33333333       0.08333333       0.08333333 </v>
    <v>       0.41666667       0.08333333       0.08333333 </v>
    <v>       0.50000000       0.08333333       0.08333333 </v>
    <v>       0.08333333       0.16666667       0.08333333 </v>
    <v>       0.16666667       0.16666667       0.08333333 </v>
    <v>       0.25000000       0.16666667       0.08333333 </v>
    <v>       0.33333333       0.16666667       0.08333333 </v>
    <v>       0.41666667       0.16666667       0.08333333 </v>
    <v>       0.50000000       0.16666667       0.08333333 </v>
    <v>       0.08333333       0.25000000       0.08333333 </v>
    <v>       0.16666667       0.25000000       0.08333333 </v>
    <v>       0.25000000       0.25000000       0.08333333 </v>
    <v>       0.33333333       0.25000000       0.08333333 </v>
    <v>       0.41666667       0.25000000       0.08333333 </v>
    <v>       0.50000000       0.25000000       0.08333333 </v>
    <v>       0.08333333       0.33333333       0.08333333 </v>
    <v>       0.16666667       0.33333333       0.08333333 </v>
    <v>       0.25000000       0.33333333       0.08333333 </v>
    <v>       0.33333333       0.33333333       0.08333333 </v>
    <v>       0.41666667       0.33333333       0.08333333 </v>
    <v>       0.50000000       0.33333333       0.08333333 </v>
    <v>       0.08333333       0.41666667       0.08333333 </v>
    <v>       0.16666667       0.41666667       0.08333333 </v>
    <v>       0.25000000       0.41666667       0.08333333 </v>
    <v>       0.33333333       0.41666667       0.08333333 </v>
    <v>       0.41666667       0.41666667       0.08333333 </v>
    <v>       0.50000000       0.41666667       0.08333333 </v>
    <v>       0.08333333       0.50000000       0.08333333 </v>
    <v>       0.16666667       0.50000000       0.08333333 </v>
    <v>       0.25000000       0.50000000       0.08333333 </v>
    <v>       0.33333333       0.50000000       0.08333333 </v>
    <v>       0.41666667       0.50000000       0.08333333 </v>
    <v>       0.50000000       0.50000000       0.08333333 </v>
    <v>       0.16666667       0.00000000       0.16666667 </v>
    <v>       0.25000000       0.00000000       0.16666667 </v>
    <v>       0.33333333       0.00000000       0.16666667 </v>
    <v>       0.41666667       0.00000000       0.16666667 </v>
    <v>       0.50000000       0.00000000       0.16666667 </v>
    <v>       0.16666667       0.08333333       0.16666667 </v>
    <v>       0.25000000       0.08333333       0.16666667 </v>
    <v>       0.33333333       0.08333333       0.16666667 </v>
    <v>       0.41666667       0.08333333       0.16666667 </v>
    <v>       0.50000000       0.08333333       0.16666667 </v>
    <v>       0.16666667       0.16666667       0.16666667 </v>
    <v>       0.25000000       0.16666667       0.16666667 </v>
    <v>       0.33333333       0.16666667       0.16666667 </v>
    <v>       0.41666667       0.16666667       0.16666667 </v>
    <v>       0.50000000       0.16666667       0.16666667 </v>
    <v>       0.16666667       0.25000000       0.16666667 </v>
    <v>       0.25000000       0.25000000       0.16666667 </v>
    <v>       0.33333333       0.25000000       0.16666667 </v>
    <v>       0.41666667       0.25000000       0.16666667 </v>
    <v>       0.50000000       0.25000000       0.16666667 </v>
    <v>       0.16666667       0.33333333       0.16666667 </v>
    <v>       0.25000000       0.33333333       0.16666667 </v>
    <v>       0.33333333       0.33333333       0.16666667 </v>
    <v>       0.41666667       0.33333333       0.16666667 </v>
    <v>       0.50000000       0.33333333       0.16666667 </v>
    <v>       0.16666667       0.41666667       0.16666667 </v>
    <v>       0.25000000       0.41666667       0.16666667 </v>
    <v>       0.33333333       0.41666667       0.16666667 </v>
    <v>       0.41666667       0.41666667       0.16666667 </v>
    <v>       0.50000000       0.41666667       0.16666667 </v>
    <v>       0.16666667       0.50000000       0.16666667 </v>
    <v>       0.25000000       0.50000000       0.16666667 </v>
    <v>       0.33333333       0.50000000       0.16666667 </v>
    <v>       0.41666667       0.50000000       0.16666667 </v>
    <v>       0.50000000       0.50000000       0.16666667 </v>
    <v>       0.25000000       0.00000000       0.25000000 </v>
    <v>       0.33333333       0.00000000       0.25000000 </v>
    <v>       0.41666667       0.00000000       0.25000000 </v>
    <v>       0.50000000       0.00000000       0.25000000 </v>
    <v>       0.25000000       0.08333333       0.25000000 </v>
    <v>       0.33333333       0.08333333       0.25000000 </v>
    <v>       0.41666667       0.08333333       0.25000000 </v>
    <v>       0.50000000       0.08333333       0.25000000 </v>
    <v>       0.25000000       0.16666667       0.25000000 </v>
    <v>       0.33333333       0.16666667       0.25000000 </v>
    <v>       0.41666667       0.16666667       0.25000000 </v>
    <v>       0.50000000       0.16666667       0.25000000 </v>
    <v>       0.25000000       0.25000000       0.25000000 </v>
    <v>       0.33333333       0.25000000       0.25000000 </v>
    <v>       0.41666667       0.25000000       0.25000000 </v>
    <v>       0.50000000       0.25000000       0.25000000 </v>
    <v>       0.25000000       0.33333333       0.25000000 </v>
    <v>       0.33333333       0.33333333       0.25000000 </v>
    <v>       0.41666667       0.33333333       0.25000000 </v>
    <v>       0.50000000       0.33333333       0.25000000 </v>
    <v>       0.25000000       0.41666667       0.25000000 </v>
    <v>       0.33333333       0.41666667       0.25000000 </v>
    <v>       0.41666667       0.41666667       0.25000000 </v>
    <v>       0.50000000       0.41666667       0.25000000 </v>
    <v>       0.25000000       0.50000000       0.25000000 </v>
    <v>       0.33333333       0.50000000       0.25000000 </v>
    <v>       0.41666667       0.50000000       0.25000000 </v>
    <v>       0.50000000       0.50000000       0.25000000 </v>
    <v>       0.33333333       0.00000000       0.33333333 </v>
    <v>       0.41666667       0.00000000       0.33333333 </v>
    <v>       0.50000000       0.00000000       0.33333333 </v>
    <v>       0.33333333       0.08333333       0.33333333 </v>
    <v>       0.41666667       0.08333333       0.33333333 </v>
    <v>       0.50000000       0.08333333       0.33333333 </v>
    <v>       0.33333333       0.16666667       0.33333333 </v>
    <v>       0.41666667       0.16666667       0.33333333 </v>
    <v>       0.50000000       0.16666667       0.33333333 </v>
    <v>       0.33333333       0.25000000       0.33333333 </v>
    <v>       0.41666667       0.25000000       0.33333333 </v>
    <v>       0.50000000       0.25000000       0.33333333 </v>
    <v>       0.33333333       0.33333333       0.33333333 </v>
    <v>       0.41666667       0.33333333       0.33333333 </v>
    <v>       0.50000000       0.33333333       0.33333333 </v>
    <v>       0.33333333       0.41666667       0.33333333 </v>
    <v>       0.41666667       0.41666667       0.33333333 </v>
    <v>       0.50000000       0.41666667       0.33333333 </v>
    <v>       0.33333333       0.50000000       0.33333333 </v>
    <v>       0.41666667       0.50000000       0.33333333 </v>
    <v>       0.50000000       0.50000000       0.33333333 </v>
    <v>       0.41666667       0.00000000       0.41666667 </v>
    <v>       0.50000000       0.00000000       0.41666667 </v>
    <v>       0.41666667       0.08333333       0.41666667 </v>
    <v>       0.50000000       0.08333333       0.41666667 </v>
    <v>       0.41666667       0.16666667       0.41666667 </v>
    <v>       0.50000000       0.16666667       0.41666667 </v>
    <v>       0.41666667       0.25000000       0.41666667 </v>
    <v>       0.50000000       0.25000000       0.41666667 </v>
    <v>       0.41666667       0.33333333       0.41666667 </v>
    <v>       0.50000000       0.33333333       0.41666667 </v>
    <v>       0.41666667       0.41666667       0.41666667 </v>
    <v>       0.50000000       0.41666667       0.41666667 </v>
    <v>       0.41666667       0.50000000       0.41666667 </v>
    <v>       0.50000000       0.50000000       0.41666667 </v>
    <v>       0.50000000       0.00000000       0.50000000 </v>
    <v>       0.50000000       0.08333333       0.50000000 </v>
    <v>       0.50000000       0.16666667       0.50000000 </v>
    <v>       0.50000000       0.25000000       0.50000000 </v>
    <v>       0.50000000       0.33333333       0.50000000 </v>
    <v>       0.50000000       0.41666667       0.50000000 </v>
    <v>       0.50000000       0.50000000       0.50000000 </v>
   </varray>
   <varray name="weights" >
    <v>       0.00057870 </v>
    <v>       0.00231481 </v>
    <v>       0.00231481 </v>
    <v>       0.00231481 </v>
    <v>       0.00231481 </v>
    <v>       0.00231481 </v>
    <v>       0.00115741 </v>
    <v>       0.00115741 </v>
    <v>       0.00462963 </v>
    <v>       0.00462963 </v>
    <v>       0.00462963 </v>
    <v>       0.00462963 </v>
    <v>       0.00462963 </v>
    <v>       0.00231481 </v>
    <v>       0.00115741 </v>
    <v>       0.00462963 </v>
    <v>       0.00462963 </v>
    <v>       0.00462963 </v>
    <v>       0.00462963 </v>
    <v>       0.00462963 </v>
    <v>       0.00231481 </v>
    <v>       0.00115741 </v>
    <v>       0.00462963 </v>
    <v>       0.00462963 </v>
    <v>       0.00462963 </v>
    <v>       0.00462963 </v>
    <v>       0.00462963 </v>
    <v>       0.00231481 </v>
    <v>       0.00115741 </v>
    <v>       0.00462963 </v>
    <v>       0.00462963 </v>
    <v>       0.00462963 </v>
    <v>       0.00462963 </v>
    <v>       0.00462963 </v>
    <v>       0.00231481 </v>
    <v>       0.00115741 </v>
    <v>       0.00462963 </v>
    <v>       0.00462963 </v>
    <v>       0.00462963 </v>
    <v>       0.00462963 </v>
    <v>       0.00462963 </v>
    <v>       0.00231481 </v>
    <v>       0.00057870 </v>
    <v>       0.00231481 </v>
    <v>       0.00231481 </v>
    <v>       0.00231481 </v>
    <v>       0.00231481 </v>
    <v>       0.00231481 </v>
    <v>       0.00115741 </v>
    <v>       0.00231481 </v>
    <v>       0.00462963 </v>
    <v>       0.00462963 </v>
    <v>       0.00462963 </v>
    <v>       0.00462963 </v>
    <v>       0.00231481 </v>
    <v>       0.00462963 </v>
    <v>       0.00925926 </v>
    <v>       0.00925926 </v>
    <v>       0.00925926 </v>
    <v>       0.00925926 </v>
    <v>       0.00462963 </v>
    <v>       0.00462963 </v>
    <v>       0.00925926 </v>
    <v>       0.00925926 </v>
    <v>       0.00925926 </v>
    <v>       0.00925926 </v>
    <v>       0.00462963 </v>
    <v>       0.00462963 </v>
    <v>       0.00925926 </v>
    <v>       0.00925926 </v>
    <v>       0.00925926 </v>
    <v>       0.00925926 </v>
    <v>       0.00462963 </v>
    <v>       0.00462963 </v>
    <v>       0.00925926 </v>
    <v>       0.00925926 </v>
    <v>       0.00925926 </v>
    <v>       0.00925926 </v>
    <v>       0.00462963 </v>
    <v>       0.00462963 </v>
    <v>       0.00925926 </v>
    <v>       0.00925926 </v>
    <v>       0.00925926 </v>
    <v>       0.00925926 </v>
    <v>       0.00462963 </v>
    <v>       0.00231481 </v>
    <v>       0.00462963 </v>
    <v>       0.00462963 </v>
    <v>       0.00462963 </v>
    <v>       0.00462963 </v>
    <v>       0.00231481 </v>
    <v>       0.00231481 </v>
    <v>       0.00462963 </v>
    <v>       0.00462963 </v>
    <v>       0.00462963 </v>
    <v>       0.00231481 </v>
    <v>       0.00462963 </v>
    <v>       0.00925926 </v>
    <v>       0.00925926 </v>
    <v>       0.00925926 </v>
    <v>       0.00462963 </v>
    <v>       0.00462963 </v>
    <v>       0.00925926 </v>
    <v>       0.00925926 </v>
    <v>       0.00925926 </v>
    <v>       0.00462963 </v>
    <v>       0.00462963 </v>
    <v>       0.00925926 </v>
    <v>       0.00925926 </v>
    <v>       0.00925926 </v>
    <v>       0.00462963 </v>
    <v>       0.00462963 </v>
    <v>       0.00925926 </v>
    <v>       0.00925926 </v>
    <v>       0.00925926 </v>
    <v>       0.00462963 </v>
    <v>       0.00462963 </v>
    <v>       0.00925926 </v>
    <v>       0.00925926 </v>
    <v>       0.00925926 </v>
    <v>       0.00462963 </v>
    <v>       0.00231481 </v>
    <v>       0.00462963 </v>
    <v>       0.00462963 </v>
    <v>       0.00462963 </v>
    <v>       0.00231481 </v>
    <v>       0.00231481 </v>
    <v>       0.00462963 </v>
    <v>       0.00462963 </v>
    <v>       0.00231481 </v>
    <v>       0.00462963 </v>
    <v>       0.00925926 </v>
    <v>       0.00925926 </v>
    <v>       0.00462963 </v>
    <v>       0.00462963 </v>
    <v>       0.00925926 </v>
    <v>       0.00925926 </v>
    <v>       0.00462963 </v>
    <v>       0.00462963 </v>
    <v>       0.00925926 </v>
    <v>       0.00925926 </v>
    <v>       0.00462963 </v>
    <v>       0.00462963 </v>
    <v>       0.00925926 </v>
    <v>       0.00925926 </v>
    <v>       0.00462963 </v>
    <v>       0.00462963 </v>
    <v>       0.00925926 </v>
    <v>       0.00925926 </v>
    <v>       0.00462963 </v>
    <v>       0.00231481 </v>
    <v>       0.00462963 </v>
    <v>       0.00462963 </v>
    <v>       0.00231481 </v>
    <v>       0.00231481 </v>
    <v>       0.00462963 </v>
    <v>       0.00231481 </v>
    <v>       0.00462963 </v>
    <v>       0.00925926 </v>
    <v>       0.00462963 </v>
    <v>       0.00462963 </v>
    <v>       0.00925926 </v>
    <v>       0.00462963 </v>
    <v>       0.00462963 </v>
    <v>       0.00925926 </v>
    <v>       0.00462963 </v>
    <v>       0.00462963 </v>
    <v>       0.00925926 </v>
    <v>       0.00462963 </v>
    <v>       0.00462963 </v>
    <v>       0.00925926 </v>
    <v>       0.00462963 </v>
    <v>       0.00231481 </v>
    <v>       0.00462963 </v>
    <v>       0.00231481 </v>
    <v>       0.00231481 </v>
    <v>       0.00231481 </v>
    <v>       0.00462963 </v>
    <v>       0.00462963 </v>
    <v>       0.00462963 </v>
    <v>       0.00462963 </v>
    <v>       0.00462963 </v>
    <v>       0.00462963 </v>
    <v>       0.00462963 </v>
    <v>       0.00462963 </v>
    <v>       0.00462963 </v>
    <v>       0.00462963 </v>
    <v>       0.00231481 </v>
    <v>       0.00231481 </v>
    <v>       0.00057870 </v>
    <v>       0.00115741 </v>
    <v>       0.00115741 </v>
    <v>       0.00115741 </v>
    <v>       0.00115741 </v>
    <v>       0.00115741 </v>
    <v>       0.00057870 </v>
   </varray>
  </kpoints>
  <scstep>
   <time name="total">    6.31    6.31</time>
   <energy>
    <i name="e_fr_energy">     -1.60488810 </i>
    <i name="e_wo_entrp">     -1.60488810 </i>
    <i name="e_0_energy">     -1.60488810 </i>
   </energy>
  </scstep>
  <scstep>
   <time name="total">    6.61    6.61</time>
   <energy>
    <i name="e_fr_energy">     -1.70433445 </i>
    <i name="e_wo_entrp">     -1.70433445 </i>
    <i name="e_0_energy">     -1.70433445 </i>
   </energy>
  </scstep>
  <scstep>
   <time name="total">    6.69    6.69</time>
   <energy>
    <i name="e_fr_energy">     -1.60722346 </i>
    <i name="e_wo_entrp">     -1.60722346 </i>
    <i name="e_0_energy">     -1.60722346 </i>
   </energy>
  </scstep>
  <scstep>
   <time name="total">    9.30    9.30</time>
   <energy>
    <i name="e_fr_energy">     -1.64870264 </i>
    <i name="e_wo_entrp">     -1.64870264 </i>
    <i name="e_0_energy">     -1.64870264 </i>
   </energy>
  </scstep>
  <scstep>
   <time name="total">    7.09    7.09</time>
   <energy>
    <i name="e_fr_energy">     -1.68725432 </i>
    <i name="e_wo_entrp">     -1.68725432 </i>
    <i name="e_0_energy">     -1.68725432 </i>
   </energy>
  </scstep>
  <scstep>
   <time name="total">    8.22    8.22</time>
   <energy>
    <i name="e_fr_energy">     -1.68898628 </i>
    <i name="e_wo_entrp">     -1.68898628 </i>
    <i name="e_0_energy">     -1.68898628 </i>
   </energy>
  </scstep>
  <scstep>
   <time name="total">    8.56    8.56</time>
   <energy>
    <i name="e_fr_energy">     -1.69194451 </i>
    <i name="e_wo_entrp">     -1.69194451 </i>
    <i name="e_0_energy">     -1.69194451 </i>
   </energy>
  </scstep>
  <scstep>
   <time name="total">    8.58    8.58</time>
   <energy>
    <i name="e_fr_energy">     -1.69230225 </i>
    <i name="e_wo_entrp">     -1.69230225 </i>
    <i name="e_0_energy">     -1.69230225 </i>
   </energy>
  </scstep>
  <scstep>
   <time name="total">    8.65    8.65</time>
   <energy>
    <i name="e_fr_energy">     -1.69229614 </i>
    <i name="e_wo_entrp">     -1.69229614 </i>
    <i name="e_0_energy">     -1.69229614 </i>
   </energy>
  </scstep>
  <scstep>
   <time name="total">    8.56    8.56</time>
   <energy>
    <i name="e_fr_energy">     -1.69230554 </i>
    <i name="e_wo_entrp">     -1.69230554 </i>
    <i name="e_0_energy">     -1.69230554 </i>
   </energy>
  </scstep>
  <scstep>
   <time name="total">    8.38    8.38</time>
   <energy>
    <i name="e_fr_energy">     -1.69230196 </i>
    <i name="e_wo_entrp">     -1.69230196 </i>
    <i name="e_0_energy">     -1.69230196 </i>
   </energy>
  </scstep>
  <scstep>
   <time name="total">    7.80    7.80</time>
   <energy>
    <i name="e_fr_energy">     -1.69230152 </i>
    <i name="e_wo_entrp">     -1.69230152 </i>
    <i name="e_0_energy">     -1.69230152 </i>
   </energy>
  </scstep>
  <kpoints>
   <generation param="Gamma">
    <v type="int" name="divisions">      12       12       12 </v>
    <v name="usershift">      0.00000000       0.00000000       0.00000000 </v>
    <v name="genvec1">      0.08333333       0.00000000       0.00000000 </v>
    <v name="genvec2">      0.00000000       0.08333333       0.00000000 </v>
    <v name="genvec3">      0.00000000       0.00000000       0.08333333 </v>
    <v name="shift">      0.00000000       0.00000000       0.00000000 </v>
   </generation>
   <varray name="kpointlist" >
    <v>       0.00000000       0.00000000       0.00000000 </v>
    <v>       0.08333333       0.00000000       0.00000000 </v>
    <v>       0.16666667       0.00000000       0.00000000 </v>
    <v>       0.25000000       0.00000000       0.00000000 </v>
    <v>       0.33333333       0.00000000       0.00000000 </v>
    <v>       0.41666667       0.00000000       0.00000000 </v>
    <v>       0.50000000       0.00000000       0.00000000 </v>
    <v>       0.08333333       0.08333333       0.00000000 </v>
[...]
       <r>   -0.2409    1.0000 </r>
       <r>   -0.2388    1.0000 </r>
       <r>    4.8118    0.0000 </r>
       <r>    4.9931    0.0000 </r>
       <r>    5.1552    0.0000 </r>
       <r>    6.2767    0.0000 </r>
       <r>    6.6143    0.0000 </r>
       <r>    7.4699    0.0000 </r>
       <r>    7.5543    0.0000 </r>
       <r>    7.9472    0.0000 </r>
       <r>    8.1071    0.0000 </r>
       <r>    8.2523    0.0000 </r>
       <r>    9.8345    0.0000 </r>
       <r>    9.9609    0.0000 </r>
       <r>   10.3300    0.0000 </r>
       <r>   10.3561    0.0000 </r>
       <r>   10.5913    0.0000 </r>
       <r>   10.7238    0.0000 </r>
       <r>   12.8817    0.0000 </r>
       <r>   13.1997    0.0000 </r>
       <r>   13.4988    0.0000 </r>
      </set>
      <set comment="kpoint 83">
       <r>  -19.6639    1.0000 </r>
       <r>  -13.3189    1.0000 </r>
       <r>  -13.3116    1.0000 </r>
       <r>  -13.3116    1.0000 </r>
       <r>   -7.6237    1.0000 </r>
       <r>   -7.6015    1.0000 </r>
       <r>   -7.2603    1.0000 </r>
       <r>   -7.2585    1.0000 </r>
       <r>   -7.2585    1.0000 </r>
       <r>   -6.5751    1.0000 </r>
       <r>   -6.5751    1.0000 </r>
       <r>   -6.5704    1.0000 </r>
       <r>   -5.2446    1.0000 </r>
       <r>   -1.6758    1.0000 </r>
       <r>   -1.6377    1.0000 </r>
       <r>   -1.6377    1.0000 </r>
       <r>   -0.3106    1.0000 </r>
       <r>   -0.2578    1.0000 </r>
       <r>   -0.2578    1.0000 </r>
       <r>   -0.2119    1.0000 </r>
       <r>   -0.1671    1.0000 </r>
       <r>    4.9227    0.0000 </r>
       <r>    4.9230    0.0000 </r>
       <r>    4.9230    0.0000 </r>
       <r>    6.2132    0.0000 </r>
       <r>    6.7587    0.0000 </r>
       <r>    7.4543    0.0000 </r>
       <r>    7.4543    0.0000 </r>
       <r>    7.7991    0.0000 </r>
       <r>    8.1486    0.0000 </r>
       <r>    8.2672    0.0000 </r>
       <r>    9.9878    0.0000 </r>
       <r>    9.9878    0.0000 </r>
       <r>   10.2462    0.0000 </r>
       <r>   10.5372    0.0000 </r>
       <r>   10.5874    0.0000 </r>
       <r>   10.5874    0.0000 </r>
       <r>   13.0468    0.0000 </r>
       <r>   13.3209    0.0000 </r>
       <r>   13.4110    0.0000 </r>
      </set>
      <set comment="kpoint 84">
       <r>  -19.6637    1.0000 </r>
       <r>  -13.3109    1.0000 </r>
       <r>  -13.3109    1.0000 </r>
       <r>  -13.3109    1.0000 </r>
       <r>   -7.6237    1.0000 </r>
       <r>   -7.6237    1.0000 </r>
       <r>   -7.2626    1.0000 </r>
       <r>   -7.2626    1.0000 </r>
       <r>   -7.2626    1.0000 </r>
       <r>   -6.5777    1.0000 </r>
       <r>   -6.5777    1.0000 </r>
       <r>   -6.5777    1.0000 </r>
       <r>   -5.2873    1.0000 </r>
       <r>   -1.6483    1.0000 </r>
       <r>   -1.6483    1.0000 </r>
       <r>   -1.6483    1.0000 </r>
       <r>   -0.2103    1.0000 </r>
       <r>   -0.2103    1.0000 </r>
       <r>   -0.2103    1.0000 </r>
       <r>   -0.1663    1.0000 </r>
       <r>   -0.1663    1.0000 </r>
       <r>    4.8504    0.0000 </r>
       <r>    4.8504    0.0000 </r>
       <r>    4.8504    0.0000 </r>
       <r>    6.1421    0.0000 </r>
       <r>    7.0534    0.0000 </r>
       <r>    7.4325    0.0000 </r>
       <r>    7.4325    0.0000 </r>
       <r>    7.4325    0.0000 </r>
       <r>    8.2346    0.0000 </r>
       <r>    8.2346    0.0000 </r>
       <r>   10.1956    0.0000 </r>
       <r>   10.1956    0.0000 </r>
       <r>   10.1956    0.0000 </r>
       <r>   10.4969    0.0000 </r>
       <r>   10.4969    0.0000 </r>
       <r>   10.4969    0.0000 </r>
       <r>   13.1997    0.0000 </r>
       <r>   13.3599    0.0000 </r>
       <r>   13.3599    0.0000 </r>
      </set>
     </set>
    </set>
   </array>
  </eigenvalues>
  <separator name="orbital magnetization" >
   <v name="MAGDIPOLOUT">      0.00000000      0.00000000      0.00000000</v>
  </separator>
  <dos>
   <i name="efermi">     -0.04274520 </i>
   <total>
    <array>
     <dimension dim="1">gridpoints</dimension>
     <dimension dim="2">spin</dimension>
     <field>energy</field>
     <field>total</field>
     <field>integrated</field>
     <set>
      <set comment="spin 1">
       <r>   -21.3511     0.0000     0.0000 </r>
       <r>   -21.2281     0.0000     0.0000 </r>
       <r>   -21.1051     0.0000     0.0000 </r>
       <r>   -20.9821     0.0000     0.0000 </r>
       <r>   -20.8591     0.0000     0.0000 </r>
       <r>   -20.7361     0.0000     0.0000 </r>
       <r>   -20.6131     0.0000     0.0000 </r>
       <r>   -20.4901     0.0000     0.0000 </r>
       <r>   -20.3671     0.0000     0.0000 </r>
       <r>   -20.2441     0.0000     0.0000 </r>
       <r>   -20.1211     0.0000     0.0000 </r>
       <r>   -19.9982     0.0000     0.0000 </r>
       <r>   -19.8752     0.0000     0.0000 </r>
       <r>   -19.7522     0.0000     0.0000 </r>
       <r>   -19.6292    16.2613     2.0000 </r>
       <r>   -19.5062     0.0000     2.0000 </r>
       <r>   -19.3832     0.0000     2.0000 </r>
       <r>   -19.2602     0.0000     2.0000 </r>
       <r>   -19.1372     0.0000     2.0000 </r>
       <r>   -19.0142     0.0000     2.0000 </r>
       <r>   -18.8912     0.0000     2.0000 </r>
       <r>   -18.7682     0.0000     2.0000 </r>
       <r>   -18.6452     0.0000     2.0000 </r>
       <r>   -18.5223     0.0000     2.0000 </r>
       <r>   -18.3993     0.0000     2.0000 </r>
       <r>   -18.2763     0.0000     2.0000 </r>
       <r>   -18.1533     0.0000     2.0000 </r>
       <r>   -18.0303     0.0000     2.0000 </r>
       <r>   -17.9073     0.0000     2.0000 </r>
       <r>   -17.7843     0.0000     2.0000 </r>
       <r>   -17.6613     0.0000     2.0000 </r>
       <r>   -17.5383     0.0000     2.0000 </r>
       <r>   -17.4153     0.0000     2.0000 </r>
       <r>   -17.2923     0.0000     2.0000 </r>
       <r>   -17.1693     0.0000     2.0000 </r>
       <r>   -17.0464     0.0000     2.0000 </r>
       <r>   -16.9234     0.0000     2.0000 </r>
       <r>   -16.8004     0.0000     2.0000 </r>
       <r>   -16.6774     0.0000     2.0000 </r>
       <r>   -16.5544     0.0000     2.0000 </r>
       <r>   -16.4314     0.0000     2.0000 </r>
       <r>   -16.3084     0.0000     2.0000 </r>
       <r>   -16.1854     0.0000     2.0000 </r>
       <r>   -16.0624     0.0000     2.0000 </r>
       <r>   -15.9394     0.0000     2.0000 </r>
       <r>   -15.8164     0.0000     2.0000 </r>
       <r>   -15.6934     0.0000     2.0000 </r>
       <r>   -15.5705     0.0000     2.0000 </r>
       <r>   -15.4475     0.0000     2.0000 </r>
       <r>   -15.3245     0.0000     2.0000 </r>
       <r>   -15.2015     0.0000     2.0000 </r>
       <r>   -15.0785     0.0000     2.0000 </r>
       <r>   -14.9555     0.0000     2.0000 </r>
       <r>   -14.8325     0.0000     2.0000 </r>
       <r>   -14.7095     0.0000     2.0000 </r>
       <r>   -14.5865     0.0000     2.0000 </r>
       <r>   -14.4635     0.0000     2.0000 </r>
       <r>   -14.3405     0.0000     2.0000 </r>
       <r>   -14.2175     0.0000     2.0000 </r>
       <r>   -14.0946     0.0000     2.0000 </r>
       <r>   -13.9716     0.0000     2.0000 </r>
       <r>   -13.8486     0.0000     2.0000 </r>
       <r>   -13.7256     0.3072     2.0378 </r>
       <r>   -13.6026     3.2966     2.5756 </r>
       <r>   -13.4796     4.6817     3.4392 </r>
       <r>   -13.3566     1.8102     3.9518 </r>
       <r>   -13.2336    27.3453     7.9836 </r>
       <r>   -13.1106     0.0000     8.0000 </r>
       <r>   -12.9876     0.0000     8.0000 </r>
       <r>   -12.8646     0.0000     8.0000 </r>
       <r>   -12.7416     0.0000     8.0000 </r>
       <r>   -12.6187     0.0000     8.0000 </r>
       <r>   -12.4957     0.0000     8.0000 </r>
       <r>   -12.3727     0.0000     8.0000 </r>
       <r>   -12.2497     0.0000     8.0000 </r>
       <r>   -12.1267     0.0000     8.0000 </r>
       <r>   -12.0037     0.0000     8.0000 </r>
       <r>   -11.8807     0.0000     8.0000 </r>
       <r>   -11.7577     0.0000     8.0000 </r>
       <r>   -11.6347     0.0000     8.0000 </r>
       <r>   -11.5117     0.0000     8.0000 </r>
       <r>   -11.3887     0.0000     8.0000 </r>
       <r>   -11.2657     0.0000     8.0000 </r>
       <r>   -11.1427     0.0000     8.0000 </r>
       <r>   -11.0198     0.0000     8.0000 </r>
       <r>   -10.8968     0.0000     8.0000 </r>
       <r>   -10.7738     0.0000     8.0000 </r>
       <r>   -10.6508     0.0000     8.0000 </r>
       <r>   -10.5278     0.0000     8.0000 </r>
       <r>   -10.4048     0.0000     8.0000 </r>
       <r>   -10.2818     0.0000     8.0000 </r>
       <r>   -10.1588     0.0000     8.0000 </r>
       <r>   -10.0358     0.0000     8.0000 </r>
       <r>    -9.9128     0.0000     8.0000 </r>
       <r>    -9.7898     0.0000     8.0000 </r>
       <r>    -9.6668     0.0000     8.0000 </r>
       <r>    -9.5439     0.0000     8.0000 </r>
       <r>    -9.4209     0.0000     8.0000 </r>
       <r>    -9.2979     0.0000     8.0000 </r>
       <r>    -9.1749     0.0000     8.0000 </r>
       <r>    -9.0519     0.0000     8.0000 </r>
       <r>    -8.9289     0.0000     8.0000 </r>
       <r>    -8.8059     0.0000     8.0000 </r>
       <r>    -8.6829     0.0000     8.0000 </r>
       <r>    -8.5599     0.0000     8.0000 </r>
       <r>    -8.4369     0.0000     8.0000 </r>
       <r>    -8.3139     0.0000     8.0000 </r>
       <r>    -8.1909     0.0000     8.0000 </r>
       <r>    -8.0680     0.0000     8.0000 </r>
       <r>    -7.9450     0.0000     8.0000 </r>
       <r>    -7.8220     0.0000     8.0000 </r>
       <r>    -7.6990     0.0000     8.0000 </r>
       <r>    -7.5760     3.2694     8.4021 </r>
       <r>    -7.4530     5.3250     9.4640 </r>
       <r>    -7.3300     3.5821    10.2438 </r>
       <r>    -7.2070    28.1177    13.9154 </r>
       <r>    -7.0840     2.7737    17.5877 </r>
       <r>    -6.9610     2.7940    17.9999 </r>
       <r>    -6.8380     0.0000    18.0000 </r>
       <r>    -6.7150     0.0000    18.0000 </r>
       <r>    -6.5921     0.0023    18.0003 </r>
       <r>    -6.4691    40.0035    23.3263 </r>
       <r>    -6.3461     0.0000    24.0000 </r>
       <r>    -6.2231     0.0000    24.0000 </r>
       <r>    -6.1001     0.0000    24.0000 </r>
       <r>    -5.9771     0.0000    24.0000 </r>
       <r>    -5.8541     0.0000    24.0000 </r>
       <r>    -5.7311     0.0000    24.0000 </r>
       <r>    -5.6081     0.0000    24.0000 </r>
       <r>    -5.4851     0.0000    24.0000 </r>
       <r>    -5.3621     0.0000    24.0000 </r>
       <r>    -5.2391     0.0533    24.0066 </r>
       <r>    -5.1162     0.0964    24.0339 </r>
       <r>    -4.9932     0.2259    24.0938 </r>
       <r>    -4.8702     0.2886    24.1431 </r>
       <r>    -4.7472     0.4124    24.2209 </r>
       <r>    -4.6242     0.0238    24.2934 </r>
       <r>    -4.5012     0.7904    24.4224 </r>
       <r>    -4.3782     0.6776    24.5336 </r>
       <r>    -4.2552     0.7699    24.6560 </r>
       <r>    -4.1322     0.8764    24.7965 </r>
       <r>    -4.0092     1.0424    24.9835 </r>
       <r>    -3.8862     1.2387    25.1917 </r>
       <r>    -3.7632     0.5790    25.3050 </r>
       <r>    -3.6403     0.5284    25.4793 </r>
       <r>    -3.5173     0.5167    25.6122 </r>
       <r>    -3.3943     0.8939    25.7558 </r>
       <r>    -3.2713     0.3388    25.8125 </r>
       <r>    -3.1483     0.5268    25.9467 </r>
       <r>    -3.0253     0.1129    25.9606 </r>
       <r>    -2.9023     1.3333    26.1281 </r>
       <r>    -2.7793     1.7571    26.4580 </r>
       <r>    -2.6563     1.5410    26.7868 </r>
       <r>    -2.5333     1.2016    27.1061 </r>
       <r>    -2.4103     1.5111    27.3699 </r>
       <r>    -2.2873     0.8473    27.5845 </r>
       <r>    -2.1644     1.0895    27.7740 </r>
       <r>    -2.0414     1.5361    28.0095 </r>
       <r>    -1.9184     3.6149    28.5256 </r>
       <r>    -1.7954     4.7897    29.3298 </r>
       <r>    -1.6724     3.5198    30.1042 </r>
       <r>    -1.5494     6.0688    31.0682 </r>
       <r>    -1.4264     4.0369    31.8622 </r>
       <r>    -1.3034     5.3880    32.8363 </r>
       <r>    -1.1804     4.2228    33.5448 </r>
       <r>    -1.0574     4.9926    34.4254 </r>
       <r>    -0.9344     7.0750    35.6931 </r>
       <r>    -0.8114     5.5651    36.6914 </r>
       <r>    -0.6885     7.0101    38.0103 </r>
       <r>    -0.5655     7.3316    39.2536 </r>
       <r>    -0.4425     6.2909    40.3003 </r>
       <r>    -0.3195     5.2035    41.3379 </r>
       <r>    -0.1965     4.0640    41.9593 </r>
       <r>    -0.0735     0.0000    42.0000 </r>
       <r>     0.0495     0.0000    42.0000 </r>
       <r>     0.1725     0.0000    42.0000 </r>
       <r>     0.2955     0.0000    42.0000 </r>
       <r>     0.4185     0.0000    42.0000 </r>
       <r>     0.5415     0.0094    42.0012 </r>
       <r>     0.6645     0.0000    42.0012 </r>
       <r>     0.7874     0.0565    42.0081 </r>
       <r>     0.9104     0.0622    42.0157 </r>
       <r>     1.0334     0.0001    42.0220 </r>
       <r>     1.1564     0.0000    42.0312 </r>
       <r>     1.2794     0.0565    42.0382 </r>
       <r>     1.4024     0.2259    42.0660 </r>
       <r>     1.5254     0.2259    42.0937 </r>
       <r>     1.6484     0.0000    42.0938 </r>
       <r>     1.7714     0.2210    42.1348 </r>
       <r>     1.8944     0.0531    42.1419 </r>
       <r>     2.0174     0.3164    42.1813 </r>
       <r>     2.1404     0.0000    42.2072 </r>
       <r>     2.2633     0.6743    42.2901 </r>
       <r>     2.3863     0.0000    42.2905 </r>
       <r>     2.5093     0.2259    42.3183 </r>
       <r>     2.6323     0.3504    42.3614 </r>
       <r>     2.7553     0.2363    42.4237 </r>
       <r>     2.8783     0.6772    42.5335 </r>
       <r>     3.0013     0.2055    42.5588 </r>
       <r>     3.1243     0.1486    42.5889 </r>
       <r>     3.2473     0.2272    42.6819 </r>
       <r>     3.3703     0.2259    42.7720 </r>
       <r>     3.4933     0.9041    42.8832 </r>
       <r>     3.6163     0.7900    42.9837 </r>
       <r>     3.7393     0.9501    43.1284 </r>
       <r>     3.8622     0.1100    43.2334 </r>
       <r>     3.9852     0.4753    43.2923 </r>
       <r>     4.1082     0.9363    43.4277 </r>
       <r>     4.2312     0.5642    43.5486 </r>
       <r>     4.3542     0.2609    43.5807 </r>
       <r>     4.4772     0.2051    43.6711 </r>
       <r>     4.6002     1.0514    43.8029 </r>
       <r>     4.7232     0.0831    43.8227 </r>
       <r>     4.8462     0.5975    43.8964 </r>
       <r>     4.9692     0.2886    44.0077 </r>
       <r>     5.0922     0.0850    44.0405 </r>
       <r>     5.2152     0.7037    44.1444 </r>
       <r>     5.3381     0.0753    44.2002 </r>
       <r>     5.4611     0.9322    44.3496 </r>
       <r>     5.5841     0.8974    44.5120 </r>
       <r>     5.7071     1.6219    44.7539 </r>
       <r>     5.8301     1.0114    44.9427 </r>
       <r>     5.9531     2.2862    45.2939 </r>
       <r>     6.0761     1.2498    45.6225 </r>
       <r>     6.1991     2.7216    46.1854 </r>
       <r>     6.3221     4.6915    46.8479 </r>
       <r>     6.4451     4.9542    47.7297 </r>
       <r>     6.5681     4.1029    48.5602 </r>
       <r>     6.6911     5.9042    49.3674 </r>
       <r>     6.8140     3.6271    50.1290 </r>
       <r>     6.9370     3.4013    50.7158 </r>
       <r>     7.0600     3.3247    51.5918 </r>
       <r>     7.1830     2.1031    52.0573 </r>
       <r>     7.3060     4.5108    52.6891 </r>
       <r>     7.4290     3.5769    53.3763 </r>
       <r>     7.5520     6.8015    54.5564 </r>
       <r>     7.6750     3.4425    55.3563 </r>
       <r>     7.7980     2.0346    55.8104 </r>
       <r>     7.9210     2.1502    56.1788 </r>
       <r>     8.0440     1.7529    56.6820 </r>
       <r>     8.1670     3.8432    57.4484 </r>
       <r>     8.2899     5.5316    58.3586 </r>
       <r>     8.4129     4.6189    59.3470 </r>
       <r>     8.5359     5.9079    60.2093 </r>
       <r>     8.6589     2.3472    60.7227 </r>
       <r>     8.7819     3.5365    61.3065 </r>
       <r>     8.9049     1.4574    61.6642 </r>
       <r>     9.0279     2.1112    61.9877 </r>
       <r>     9.1509     2.6809    62.3459 </r>
       <r>     9.2739     1.5402    62.7357 </r>
       <r>     9.3969     1.7349    63.0328 </r>
       <r>     9.5199     2.2840    63.6004 </r>
       <r>     9.6429     4.3618    64.3142 </r>
       <r>     9.7658     2.6888    64.7196 </r>
       <r>     9.8888     4.9945    65.6837 </r>
       <r>    10.0118     6.6520    66.7244 </r>
       <r>    10.1348     5.2073    67.9148 </r>
       <r>    10.2578     3.2425    68.6708 </r>
       <r>    10.3808     2.8669    69.2889 </r>
       <r>    10.5038     2.1129    69.8860 </r>
       <r>    10.6268     2.8540    70.3834 </r>
       <r>    10.7498     1.0751    70.6901 </r>
       <r>    10.8728     2.7281    71.1341 </r>
       <r>    10.9958     2.2525    71.5131 </r>
       <r>    11.1188     3.5302    72.0522 </r>
       <r>    11.2417     1.9101    72.3507 </r>
       <r>    11.3647     2.3021    72.7322 </r>
       <r>    11.4877     1.3517    73.1061 </r>
       <r>    11.6107     1.5225    73.4673 </r>
       <r>    11.7337     1.8103    73.7597 </r>
       <r>    11.8567     3.1224    74.2833 </r>
       <r>    11.9797     3.7315    74.9346 </r>
       <r>    12.1027     3.4337    75.6017 </r>
       <r>    12.2257     4.2267    76.1923 </r>
       <r>    12.3487     2.3518    76.6261 </r>
       <r>    12.4717     2.3540    77.1344 </r>
       <r>    12.5947     1.7616    77.4042 </r>
       <r>    12.7176     1.4504    77.7154 </r>
       <r>    12.8406     0.8190    77.9086 </r>
       <r>    12.9636     0.9605    78.0996 </r>
       <r>    13.0866     2.4962    78.4957 </r>
       <r>    13.2096     1.5358    78.7803 </r>
       <r>    13.3326     1.2060    79.0581 </r>
       <r>    13.4556     1.3621    79.3296 </r>
       <r>    13.5786     1.7379    79.8364 </r>
       <r>    13.7016     0.3353    79.8885 </r>
       <r>    13.8246     0.1130    79.9028 </r>
       <r>    13.9476     0.2259    80.0000 </r>
       <r>    14.0706     0.0000    80.0000 </r>
       <r>    14.1935     0.0000    80.0000 </r>
       <r>    14.3165     0.0000    80.0000 </r>
       <r>    14.4395     0.0000    80.0000 </r>
       <r>    14.5625     0.0000    80.0000 </r>
       <r>    14.6855     0.0000    80.0000 </r>
       <r>    14.8085     0.0000    80.0000 </r>
       <r>    14.9315     0.0000    80.0000 </r>
       <r>    15.0545     0.0000    80.0000 </r>
       <r>    15.1775     0.0000    80.0000 </r>
       <r>    15.3005     0.0000    80.0000 </r>
       <r>    15.4235     0.0000    80.0000 </r>
       <r>    15.5465     0.0000    80.0000 </r>
      </set>
     </set>
    </array>
   </total>
  </dos>
 </calculation>
 <structure name="finalpos" >
  <crystal>
   <varray name="basis" >
    <v>       5.48724731       0.00000000       0.00000000 </v>
    <v>       0.00000000       5.48724731       0.00000000 </v>
    <v>       0.00000000       0.00000000       5.48724731 </v>
   </varray>
   <i name="volume">    165.22037447 </i>
   <varray name="rec_basis" >
    <v>       0.18224074       0.00000000       0.00000000 </v>
    <v>       0.00000000       0.18224074       0.00000000 </v>
    <v>       0.00000000       0.00000000       0.18224074 </v>
   </varray>
  </crystal>
  <varray name="positions" >
   <v>       0.00000000       0.50000000       0.50000000 </v>
   <v>       0.50000000       0.00000000       0.50000000 </v>
   <v>       0.50000000       0.50000000       0.00000000 </v>
   <v>       0.50000000       0.50000000       0.50000000 </v>
   <v>       0.00000000       0.00000000       0.00000000 </v>
  </varray>
 </structure>
</modeling>
