Br3CaCs                                 
           1
     5.487247    0.000000    0.000000
     0.000000    5.487247    0.000000
     0.000000    0.000000    5.487247
   Br   Cd   Cs
   3   1   1
Direct configuration=     1
   0.00000000  0.50000000  0.50000000
   0.50000000  0.00000000  0.50000000
   0.50000000  0.50000000  0.00000000
   0.50000000  0.50000000  0.50000000
   0.00000000  0.00000000  0.00000000
