# Animation of a phonon mode
# K point :        0       0       0
# Mode index :    2
# Frequency (cm^-1) : 1.09737e-10

ANIMSTEPS 20
CRYSTAL
PRIMVEC
   1.097449e+01  -0.000000e+00   0.000000e+00
   0.000000e+00   1.097449e+01   0.000000e+00
  -0.000000e+00   0.000000e+00   1.097449e+01
PRIMCOORD          1
        40         1
        Br   0.000000e+00   2.743624e+00   2.743624e+00
        Br   2.743624e+00   0.000000e+00   2.743624e+00
        Br   2.743624e+00   2.743624e+00   0.000000e+00
        Cd   2.743624e+00   2.743624e+00   2.743624e+00
        Cs   0.000000e+00   0.000000e+00   0.000000e+00
        Br   0.000000e+00   2.743624e+00   8.230871e+00
        Br   2.743624e+00   0.000000e+00   8.230871e+00
        Br   2.743624e+00   2.743624e+00   5.487247e+00
        Cd   2.743624e+00   2.743624e+00   8.230871e+00
        Cs   0.000000e+00   0.000000e+00   5.487247e+00
        Br   0.000000e+00   8.230871e+00   2.743624e+00
        Br   2.743624e+00   5.487247e+00   2.743624e+00
        Br   2.743624e+00   8.230871e+00   0.000000e+00
        Cd   2.743624e+00   8.230871e+00   2.743624e+00
        Cs   0.000000e+00   5.487247e+00   0.000000e+00
        Br   0.000000e+00   8.230871e+00   8.230871e+00
        Br   2.743624e+00   5.487247e+00   8.230871e+00
        Br   2.743624e+00   8.230871e+00   5.487247e+00
        Cd   2.743624e+00   8.230871e+00   8.230871e+00
        Cs   0.000000e+00   5.487247e+00   5.487247e+00
        Br   5.487247e+00   2.743624e+00   2.743624e+00
        Br   8.230871e+00   0.000000e+00   2.743624e+00
        Br   8.230871e+00   2.743624e+00   0.000000e+00
        Cd   8.230871e+00   2.743624e+00   2.743624e+00
        Cs   5.487247e+00   0.000000e+00   0.000000e+00
        Br   5.487247e+00   2.743624e+00   8.230871e+00
        Br   8.230871e+00   0.000000e+00   8.230871e+00
        Br   8.230871e+00   2.743624e+00   5.487247e+00
        Cd   8.230871e+00   2.743624e+00   8.230871e+00
        Cs   5.487247e+00   0.000000e+00   5.487247e+00
        Br   5.487247e+00   8.230871e+00   2.743624e+00
        Br   8.230871e+00   5.487247e+00   2.743624e+00
        Br   8.230871e+00   8.230871e+00   0.000000e+00
        Cd   8.230871e+00   8.230871e+00   2.743624e+00
        Cs   5.487247e+00   5.487247e+00   0.000000e+00
        Br   5.487247e+00   8.230871e+00   8.230871e+00
        Br   8.230871e+00   5.487247e+00   8.230871e+00
        Br   8.230871e+00   8.230871e+00   5.487247e+00
        Cd   8.230871e+00   8.230871e+00   8.230871e+00
        Cs   5.487247e+00   5.487247e+00   5.487247e+00
PRIMCOORD          2
        40         1
        Br   3.265410e-02   2.779734e+00   2.776558e+00
        Br   2.761966e+00   2.765911e-02   2.792136e+00
        Br   2.788925e+00   2.780852e+00   4.097499e-03
        Cd   2.746961e+00   2.764298e+00   2.743991e+00
        Cs   1.864433e-03   2.602593e-04   2.074262e-02
        Br   3.265410e-02   2.779734e+00   8.263805e+00
        Br   2.761966e+00   2.765911e-02   8.279383e+00
        Br   2.788925e+00   2.780852e+00   5.491345e+00
        Cd   2.746961e+00   2.764298e+00   8.231239e+00
        Cs   1.864433e-03   2.602593e-04   5.507990e+00
        Br   3.265410e-02   8.266981e+00   2.776558e+00
        Br   2.761966e+00   5.514906e+00   2.792136e+00
        Br   2.788925e+00   8.268099e+00   4.097499e-03
        Cd   2.746961e+00   8.251545e+00   2.743991e+00
        Cs   1.864433e-03   5.487508e+00   2.074262e-02
        Br   3.265410e-02   8.266981e+00   8.263805e+00
        Br   2.761966e+00   5.514906e+00   8.279383e+00
        Br   2.788925e+00   8.268099e+00   5.491345e+00
        Cd   2.746961e+00   8.251545e+00   8.231239e+00
        Cs   1.864433e-03   5.487508e+00   5.507990e+00
        Br   5.519901e+00   2.779734e+00   2.776558e+00
        Br   8.249213e+00   2.765911e-02   2.792136e+00
        Br   8.276172e+00   2.780852e+00   4.097499e-03
        Cd   8.234209e+00   2.764298e+00   2.743991e+00
        Cs   5.489112e+00   2.602593e-04   2.074262e-02
        Br   5.519901e+00   2.779734e+00   8.263805e+00
        Br   8.249213e+00   2.765911e-02   8.279383e+00
        Br   8.276172e+00   2.780852e+00   5.491345e+00
        Cd   8.234209e+00   2.764298e+00   8.231239e+00
        Cs   5.489112e+00   2.602593e-04   5.507990e+00
        Br   5.519901e+00   8.266981e+00   2.776558e+00
        Br   8.249213e+00   5.514906e+00   2.792136e+00
        Br   8.276172e+00   8.268099e+00   4.097499e-03
        Cd   8.234209e+00   8.251545e+00   2.743991e+00
        Cs   5.489112e+00   5.487508e+00   2.074262e-02
        Br   5.519901e+00   8.266981e+00   8.263805e+00
        Br   8.249213e+00   5.514906e+00   8.279383e+00
        Br   8.276172e+00   8.268099e+00   5.491345e+00
        Cd   8.234209e+00   8.251545e+00   8.231239e+00
        Cs   5.489112e+00   5.487508e+00   5.507990e+00
PRIMCOORD          3
        40         1
        Br   5.283544e-02   2.802051e+00   2.796912e+00
        Br   2.773302e+00   4.475339e-02   2.822118e+00
        Br   2.816922e+00   2.803860e+00   6.629892e-03
        Cd   2.749024e+00   2.777075e+00   2.744219e+00
        Cs   3.016717e-03   4.211083e-04   3.356227e-02
        Br   5.283544e-02   2.802051e+00   8.284160e+00
        Br   2.773302e+00   4.475339e-02   8.309366e+00
        Br   2.816922e+00   2.803860e+00   5.493877e+00
        Cd   2.749024e+00   2.777075e+00   8.231466e+00
        Cs   3.016717e-03   4.211083e-04   5.520810e+00
        Br   5.283544e-02   8.289299e+00   2.796912e+00
        Br   2.773302e+00   5.532001e+00   2.822118e+00
        Br   2.816922e+00   8.291107e+00   6.629892e-03
        Cd   2.749024e+00   8.264322e+00   2.744219e+00
        Cs   3.016717e-03   5.487668e+00   3.356227e-02
        Br   5.283544e-02   8.289299e+00   8.284160e+00
        Br   2.773302e+00   5.532001e+00   8.309366e+00
        Br   2.816922e+00   8.291107e+00   5.493877e+00
        Cd   2.749024e+00   8.264322e+00   8.231466e+00
        Cs   3.016717e-03   5.487668e+00   5.520810e+00
        Br   5.540083e+00   2.802051e+00   2.796912e+00
        Br   8.260549e+00   4.475339e-02   2.822118e+00
        Br   8.304170e+00   2.803860e+00   6.629892e-03
        Cd   8.236272e+00   2.777075e+00   2.744219e+00
        Cs   5.490264e+00   4.211083e-04   3.356227e-02
        Br   5.540083e+00   2.802051e+00   8.284160e+00
        Br   8.260549e+00   4.475339e-02   8.309366e+00
        Br   8.304170e+00   2.803860e+00   5.493877e+00
        Cd   8.236272e+00   2.777075e+00   8.231466e+00
        Cs   5.490264e+00   4.211083e-04   5.520810e+00
        Br   5.540083e+00   8.289299e+00   2.796912e+00
        Br   8.260549e+00   5.532001e+00   2.822118e+00
        Br   8.304170e+00   8.291107e+00   6.629892e-03
        Cd   8.236272e+00   8.264322e+00   2.744219e+00
        Cs   5.490264e+00   5.487668e+00   3.356227e-02
        Br   5.540083e+00   8.289299e+00   8.284160e+00
        Br   8.260549e+00   5.532001e+00   8.309366e+00
        Br   8.304170e+00   8.291107e+00   5.493877e+00
        Cd   8.236272e+00   8.264322e+00   8.231466e+00
        Cs   5.490264e+00   5.487668e+00   5.520810e+00
PRIMCOORD          4
        40         1
        Br   5.283544e-02   2.802051e+00   2.796912e+00
        Br   2.773302e+00   4.475339e-02   2.822118e+00
        Br   2.816922e+00   2.803860e+00   6.629892e-03
        Cd   2.749024e+00   2.777075e+00   2.744219e+00
        Cs   3.016717e-03   4.211083e-04   3.356227e-02
        Br   5.283544e-02   2.802051e+00   8.284160e+00
        Br   2.773302e+00   4.475339e-02   8.309366e+00
        Br   2.816922e+00   2.803860e+00   5.493877e+00
        Cd   2.749024e+00   2.777075e+00   8.231466e+00
        Cs   3.016717e-03   4.211083e-04   5.520810e+00
        Br   5.283544e-02   8.289299e+00   2.796912e+00
        Br   2.773302e+00   5.532001e+00   2.822118e+00
        Br   2.816922e+00   8.291107e+00   6.629892e-03
        Cd   2.749024e+00   8.264322e+00   2.744219e+00
        Cs   3.016717e-03   5.487668e+00   3.356227e-02
        Br   5.283544e-02   8.289299e+00   8.284160e+00
        Br   2.773302e+00   5.532001e+00   8.309366e+00
        Br   2.816922e+00   8.291107e+00   5.493877e+00
        Cd   2.749024e+00   8.264322e+00   8.231466e+00
        Cs   3.016717e-03   5.487668e+00   5.520810e+00
        Br   5.540083e+00   2.802051e+00   2.796912e+00
        Br   8.260549e+00   4.475339e-02   2.822118e+00
        Br   8.304170e+00   2.803860e+00   6.629892e-03
        Cd   8.236272e+00   2.777075e+00   2.744219e+00
        Cs   5.490264e+00   4.211083e-04   3.356227e-02
        Br   5.540083e+00   2.802051e+00   8.284160e+00
        Br   8.260549e+00   4.475339e-02   8.309366e+00
        Br   8.304170e+00   2.803860e+00   5.493877e+00
        Cd   8.236272e+00   2.777075e+00   8.231466e+00
        Cs   5.490264e+00   4.211083e-04   5.520810e+00
        Br   5.540083e+00   8.289299e+00   2.796912e+00
        Br   8.260549e+00   5.532001e+00   2.822118e+00
        Br   8.304170e+00   8.291107e+00   6.629892e-03
        Cd   8.236272e+00   8.264322e+00   2.744219e+00
        Cs   5.490264e+00   5.487668e+00   3.356227e-02
        Br   5.540083e+00   8.289299e+00   8.284160e+00
        Br   8.260549e+00   5.532001e+00   8.309366e+00
        Br   8.304170e+00   8.291107e+00   5.493877e+00
        Cd   8.236272e+00   8.264322e+00   8.231466e+00
        Cs   5.490264e+00   5.487668e+00   5.520810e+00
PRIMCOORD          5
        40         1
        Br   3.265410e-02   2.779734e+00   2.776558e+00
        Br   2.761966e+00   2.765911e-02   2.792136e+00
        Br   2.788925e+00   2.780852e+00   4.097499e-03
        Cd   2.746961e+00   2.764298e+00   2.743991e+00
        Cs   1.864433e-03   2.602593e-04   2.074262e-02
        Br   3.265410e-02   2.779734e+00   8.263805e+00
        Br   2.761966e+00   2.765911e-02   8.279383e+00
        Br   2.788925e+00   2.780852e+00   5.491345e+00
        Cd   2.746961e+00   2.764298e+00   8.231239e+00
        Cs   1.864433e-03   2.602593e-04   5.507990e+00
        Br   3.265410e-02   8.266981e+00   2.776558e+00
        Br   2.761966e+00   5.514906e+00   2.792136e+00
        Br   2.788925e+00   8.268099e+00   4.097499e-03
        Cd   2.746961e+00   8.251545e+00   2.743991e+00
        Cs   1.864433e-03   5.487508e+00   2.074262e-02
        Br   3.265410e-02   8.266981e+00   8.263805e+00
        Br   2.761966e+00   5.514906e+00   8.279383e+00
        Br   2.788925e+00   8.268099e+00   5.491345e+00
        Cd   2.746961e+00   8.251545e+00   8.231239e+00
        Cs   1.864433e-03   5.487508e+00   5.507990e+00
        Br   5.519901e+00   2.779734e+00   2.776558e+00
        Br   8.249213e+00   2.765911e-02   2.792136e+00
        Br   8.276172e+00   2.780852e+00   4.097499e-03
        Cd   8.234209e+00   2.764298e+00   2.743991e+00
        Cs   5.489112e+00   2.602593e-04   2.074262e-02
        Br   5.519901e+00   2.779734e+00   8.263805e+00
        Br   8.249213e+00   2.765911e-02   8.279383e+00
        Br   8.276172e+00   2.780852e+00   5.491345e+00
        Cd   8.234209e+00   2.764298e+00   8.231239e+00
        Cs   5.489112e+00   2.602593e-04   5.507990e+00
        Br   5.519901e+00   8.266981e+00   2.776558e+00
        Br   8.249213e+00   5.514906e+00   2.792136e+00
        Br   8.276172e+00   8.268099e+00   4.097499e-03
        Cd   8.234209e+00   8.251545e+00   2.743991e+00
        Cs   5.489112e+00   5.487508e+00   2.074262e-02
        Br   5.519901e+00   8.266981e+00   8.263805e+00
        Br   8.249213e+00   5.514906e+00   8.279383e+00
        Br   8.276172e+00   8.268099e+00   5.491345e+00
        Cd   8.234209e+00   8.251545e+00   8.231239e+00
        Cs   5.489112e+00   5.487508e+00   5.507990e+00
PRIMCOORD          6
        40         1
        Br   6.803461e-18   2.743624e+00   2.743624e+00
        Br   2.743624e+00   5.762759e-18   2.743624e+00
        Br   2.743624e+00   2.743624e+00   8.537113e-19
        Cd   2.743624e+00   2.743624e+00   2.743624e+00
        Cs   3.884535e-19   5.422485e-20   4.321712e-18
        Br   6.803461e-18   2.743624e+00   8.230871e+00
        Br   2.743624e+00   5.762759e-18   8.230871e+00
        Br   2.743624e+00   2.743624e+00   5.487247e+00
        Cd   2.743624e+00   2.743624e+00   8.230871e+00
        Cs   3.884535e-19   5.422485e-20   5.487247e+00
        Br   6.803461e-18   8.230871e+00   2.743624e+00
        Br   2.743624e+00   5.487247e+00   2.743624e+00
        Br   2.743624e+00   8.230871e+00   8.537113e-19
        Cd   2.743624e+00   8.230871e+00   2.743624e+00
        Cs   3.884535e-19   5.487247e+00   4.321712e-18
        Br   6.803461e-18   8.230871e+00   8.230871e+00
        Br   2.743624e+00   5.487247e+00   8.230871e+00
        Br   2.743624e+00   8.230871e+00   5.487247e+00
        Cd   2.743624e+00   8.230871e+00   8.230871e+00
        Cs   3.884535e-19   5.487247e+00   5.487247e+00
        Br   5.487247e+00   2.743624e+00   2.743624e+00
        Br   8.230871e+00   5.762759e-18   2.743624e+00
        Br   8.230871e+00   2.743624e+00   8.537113e-19
        Cd   8.230871e+00   2.743624e+00   2.743624e+00
        Cs   5.487247e+00   5.422485e-20   4.321712e-18
        Br   5.487247e+00   2.743624e+00   8.230871e+00
        Br   8.230871e+00   5.762759e-18   8.230871e+00
        Br   8.230871e+00   2.743624e+00   5.487247e+00
        Cd   8.230871e+00   2.743624e+00   8.230871e+00
        Cs   5.487247e+00   5.422485e-20   5.487247e+00
        Br   5.487247e+00   8.230871e+00   2.743624e+00
        Br   8.230871e+00   5.487247e+00   2.743624e+00
        Br   8.230871e+00   8.230871e+00   8.537113e-19
        Cd   8.230871e+00   8.230871e+00   2.743624e+00
        Cs   5.487247e+00   5.487247e+00   4.321712e-18
        Br   5.487247e+00   8.230871e+00   8.230871e+00
        Br   8.230871e+00   5.487247e+00   8.230871e+00
        Br   8.230871e+00   8.230871e+00   5.487247e+00
        Cd   8.230871e+00   8.230871e+00   8.230871e+00
        Cs   5.487247e+00   5.487247e+00   5.487247e+00
PRIMCOORD          7
        40         1
        Br  -3.265410e-02   2.707513e+00   2.710689e+00
        Br   2.725282e+00  -2.765911e-02   2.695111e+00
        Br   2.698323e+00   2.706396e+00  -4.097499e-03
        Cd   2.740286e+00   2.722949e+00   2.743256e+00
        Cs  -1.864433e-03  -2.602593e-04  -2.074262e-02
        Br  -3.265410e-02   2.707513e+00   8.197937e+00
        Br   2.725282e+00  -2.765911e-02   8.182359e+00
        Br   2.698323e+00   2.706396e+00   5.483150e+00
        Cd   2.740286e+00   2.722949e+00   8.230503e+00
        Cs  -1.864433e-03  -2.602593e-04   5.466505e+00
        Br  -3.265410e-02   8.194761e+00   2.710689e+00
        Br   2.725282e+00   5.459588e+00   2.695111e+00
        Br   2.698323e+00   8.193643e+00  -4.097499e-03
        Cd   2.740286e+00   8.210197e+00   2.743256e+00
        Cs  -1.864433e-03   5.486987e+00  -2.074262e-02
        Br  -3.265410e-02   8.194761e+00   8.197937e+00
        Br   2.725282e+00   5.459588e+00   8.182359e+00
        Br   2.698323e+00   8.193643e+00   5.483150e+00
        Cd   2.740286e+00   8.210197e+00   8.230503e+00
        Cs  -1.864433e-03   5.486987e+00   5.466505e+00
        Br   5.454593e+00   2.707513e+00   2.710689e+00
        Br   8.212529e+00  -2.765911e-02   2.695111e+00
        Br   8.185570e+00   2.706396e+00  -4.097499e-03
        Cd   8.227533e+00   2.722949e+00   2.743256e+00
        Cs   5.485383e+00  -2.602593e-04  -2.074262e-02
        Br   5.454593e+00   2.707513e+00   8.197937e+00
        Br   8.212529e+00  -2.765911e-02   8.182359e+00
        Br   8.185570e+00   2.706396e+00   5.483150e+00
        Cd   8.227533e+00   2.722949e+00   8.230503e+00
        Cs   5.485383e+00  -2.602593e-04   5.466505e+00
        Br   5.454593e+00   8.194761e+00   2.710689e+00
        Br   8.212529e+00   5.459588e+00   2.695111e+00
        Br   8.185570e+00   8.193643e+00  -4.097499e-03
        Cd   8.227533e+00   8.210197e+00   2.743256e+00
        Cs   5.485383e+00   5.486987e+00  -2.074262e-02
        Br   5.454593e+00   8.194761e+00   8.197937e+00
        Br   8.212529e+00   5.459588e+00   8.182359e+00
        Br   8.185570e+00   8.193643e+00   5.483150e+00
        Cd   8.227533e+00   8.210197e+00   8.230503e+00
        Cs   5.485383e+00   5.486987e+00   5.466505e+00
PRIMCOORD          8
        40         1
        Br  -5.283544e-02   2.685196e+00   2.690335e+00
        Br   2.713946e+00  -4.475339e-02   2.665129e+00
        Br   2.670325e+00   2.683387e+00  -6.629892e-03
        Cd   2.738223e+00   2.710172e+00   2.743029e+00
        Cs  -3.016717e-03  -4.211083e-04  -3.356227e-02
        Br  -5.283544e-02   2.685196e+00   8.177582e+00
        Br   2.713946e+00  -4.475339e-02   8.152376e+00
        Br   2.670325e+00   2.683387e+00   5.480617e+00
        Cd   2.738223e+00   2.710172e+00   8.230276e+00
        Cs  -3.016717e-03  -4.211083e-04   5.453685e+00
        Br  -5.283544e-02   8.172443e+00   2.690335e+00
        Br   2.713946e+00   5.442494e+00   2.665129e+00
        Br   2.670325e+00   8.170635e+00  -6.629892e-03
        Cd   2.738223e+00   8.197419e+00   2.743029e+00
        Cs  -3.016717e-03   5.486826e+00  -3.356227e-02
        Br  -5.283544e-02   8.172443e+00   8.177582e+00
        Br   2.713946e+00   5.442494e+00   8.152376e+00
        Br   2.670325e+00   8.170635e+00   5.480617e+00
        Cd   2.738223e+00   8.197419e+00   8.230276e+00
        Cs  -3.016717e-03   5.486826e+00   5.453685e+00
        Br   5.434412e+00   2.685196e+00   2.690335e+00
        Br   8.201193e+00  -4.475339e-02   2.665129e+00
        Br   8.157572e+00   2.683387e+00  -6.629892e-03
        Cd   8.225470e+00   2.710172e+00   2.743029e+00
        Cs   5.484231e+00  -4.211083e-04  -3.356227e-02
        Br   5.434412e+00   2.685196e+00   8.177582e+00
        Br   8.201193e+00  -4.475339e-02   8.152376e+00
        Br   8.157572e+00   2.683387e+00   5.480617e+00
        Cd   8.225470e+00   2.710172e+00   8.230276e+00
        Cs   5.484231e+00  -4.211083e-04   5.453685e+00
        Br   5.434412e+00   8.172443e+00   2.690335e+00
        Br   8.201193e+00   5.442494e+00   2.665129e+00
        Br   8.157572e+00   8.170635e+00  -6.629892e-03
        Cd   8.225470e+00   8.197419e+00   2.743029e+00
        Cs   5.484231e+00   5.486826e+00  -3.356227e-02
        Br   5.434412e+00   8.172443e+00   8.177582e+00
        Br   8.201193e+00   5.442494e+00   8.152376e+00
        Br   8.157572e+00   8.170635e+00   5.480617e+00
        Cd   8.225470e+00   8.197419e+00   8.230276e+00
        Cs   5.484231e+00   5.486826e+00   5.453685e+00
PRIMCOORD          9
        40         1
        Br  -5.283544e-02   2.685196e+00   2.690335e+00
        Br   2.713946e+00  -4.475339e-02   2.665129e+00
        Br   2.670325e+00   2.683387e+00  -6.629892e-03
        Cd   2.738223e+00   2.710172e+00   2.743029e+00
        Cs  -3.016717e-03  -4.211083e-04  -3.356227e-02
        Br  -5.283544e-02   2.685196e+00   8.177582e+00
        Br   2.713946e+00  -4.475339e-02   8.152376e+00
        Br   2.670325e+00   2.683387e+00   5.480617e+00
        Cd   2.738223e+00   2.710172e+00   8.230276e+00
        Cs  -3.016717e-03  -4.211083e-04   5.453685e+00
        Br  -5.283544e-02   8.172443e+00   2.690335e+00
        Br   2.713946e+00   5.442494e+00   2.665129e+00
        Br   2.670325e+00   8.170635e+00  -6.629892e-03
        Cd   2.738223e+00   8.197419e+00   2.743029e+00
        Cs  -3.016717e-03   5.486826e+00  -3.356227e-02
        Br  -5.283544e-02   8.172443e+00   8.177582e+00
        Br   2.713946e+00   5.442494e+00   8.152376e+00
        Br   2.670325e+00   8.170635e+00   5.480617e+00
        Cd   2.738223e+00   8.197419e+00   8.230276e+00
        Cs  -3.016717e-03   5.486826e+00   5.453685e+00
        Br   5.434412e+00   2.685196e+00   2.690335e+00
        Br   8.201193e+00  -4.475339e-02   2.665129e+00
        Br   8.157572e+00   2.683387e+00  -6.629892e-03
        Cd   8.225470e+00   2.710172e+00   2.743029e+00
        Cs   5.484231e+00  -4.211083e-04  -3.356227e-02
        Br   5.434412e+00   2.685196e+00   8.177582e+00
        Br   8.201193e+00  -4.475339e-02   8.152376e+00
        Br   8.157572e+00   2.683387e+00   5.480617e+00
        Cd   8.225470e+00   2.710172e+00   8.230276e+00
        Cs   5.484231e+00  -4.211083e-04   5.453685e+00
        Br   5.434412e+00   8.172443e+00   2.690335e+00
        Br   8.201193e+00   5.442494e+00   2.665129e+00
        Br   8.157572e+00   8.170635e+00  -6.629892e-03
        Cd   8.225470e+00   8.197419e+00   2.743029e+00
        Cs   5.484231e+00   5.486826e+00  -3.356227e-02
        Br   5.434412e+00   8.172443e+00   8.177582e+00
        Br   8.201193e+00   5.442494e+00   8.152376e+00
        Br   8.157572e+00   8.170635e+00   5.480617e+00
        Cd   8.225470e+00   8.197419e+00   8.230276e+00
        Cs   5.484231e+00   5.486826e+00   5.453685e+00
PRIMCOORD         10
        40         1
        Br  -3.265410e-02   2.707513e+00   2.710689e+00
        Br   2.725282e+00  -2.765911e-02   2.695111e+00
        Br   2.698323e+00   2.706396e+00  -4.097499e-03
        Cd   2.740286e+00   2.722949e+00   2.743256e+00
        Cs  -1.864433e-03  -2.602593e-04  -2.074262e-02
        Br  -3.265410e-02   2.707513e+00   8.197937e+00
        Br   2.725282e+00  -2.765911e-02   8.182359e+00
        Br   2.698323e+00   2.706396e+00   5.483150e+00
        Cd   2.740286e+00   2.722949e+00   8.230503e+00
        Cs  -1.864433e-03  -2.602593e-04   5.466505e+00
        Br  -3.265410e-02   8.194761e+00   2.710689e+00
        Br   2.725282e+00   5.459588e+00   2.695111e+00
        Br   2.698323e+00   8.193643e+00  -4.097499e-03
        Cd   2.740286e+00   8.210197e+00   2.743256e+00
        Cs  -1.864433e-03   5.486987e+00  -2.074262e-02
        Br  -3.265410e-02   8.194761e+00   8.197937e+00
        Br   2.725282e+00   5.459588e+00   8.182359e+00
        Br   2.698323e+00   8.193643e+00   5.483150e+00
        Cd   2.740286e+00   8.210197e+00   8.230503e+00
        Cs  -1.864433e-03   5.486987e+00   5.466505e+00
        Br   5.454593e+00   2.707513e+00   2.710689e+00
        Br   8.212529e+00  -2.765911e-02   2.695111e+00
        Br   8.185570e+00   2.706396e+00  -4.097499e-03
        Cd   8.227533e+00   2.722949e+00   2.743256e+00
        Cs   5.485383e+00  -2.602593e-04  -2.074262e-02
        Br   5.454593e+00   2.707513e+00   8.197937e+00
        Br   8.212529e+00  -2.765911e-02   8.182359e+00
        Br   8.185570e+00   2.706396e+00   5.483150e+00
        Cd   8.227533e+00   2.722949e+00   8.230503e+00
        Cs   5.485383e+00  -2.602593e-04   5.466505e+00
        Br   5.454593e+00   8.194761e+00   2.710689e+00
        Br   8.212529e+00   5.459588e+00   2.695111e+00
        Br   8.185570e+00   8.193643e+00  -4.097499e-03
        Cd   8.227533e+00   8.210197e+00   2.743256e+00
        Cs   5.485383e+00   5.486987e+00  -2.074262e-02
        Br   5.454593e+00   8.194761e+00   8.197937e+00
        Br   8.212529e+00   5.459588e+00   8.182359e+00
        Br   8.185570e+00   8.193643e+00   5.483150e+00
        Cd   8.227533e+00   8.210197e+00   8.230503e+00
        Cs   5.485383e+00   5.486987e+00   5.466505e+00
PRIMCOORD         11
        40         1
        Br  -1.360692e-17   2.743624e+00   2.743624e+00
        Br   2.743624e+00  -1.152552e-17   2.743624e+00
        Br   2.743624e+00   2.743624e+00  -1.707423e-18
        Cd   2.743624e+00   2.743624e+00   2.743624e+00
        Cs  -7.769070e-19  -1.084497e-19  -8.643423e-18
        Br  -1.360692e-17   2.743624e+00   8.230871e+00
        Br   2.743624e+00  -1.152552e-17   8.230871e+00
        Br   2.743624e+00   2.743624e+00   5.487247e+00
        Cd   2.743624e+00   2.743624e+00   8.230871e+00
        Cs  -7.769070e-19  -1.084497e-19   5.487247e+00
        Br  -1.360692e-17   8.230871e+00   2.743624e+00
        Br   2.743624e+00   5.487247e+00   2.743624e+00
        Br   2.743624e+00   8.230871e+00  -1.707423e-18
        Cd   2.743624e+00   8.230871e+00   2.743624e+00
        Cs  -7.769070e-19   5.487247e+00  -8.643423e-18
        Br  -1.360692e-17   8.230871e+00   8.230871e+00
        Br   2.743624e+00   5.487247e+00   8.230871e+00
        Br   2.743624e+00   8.230871e+00   5.487247e+00
        Cd   2.743624e+00   8.230871e+00   8.230871e+00
        Cs  -7.769070e-19   5.487247e+00   5.487247e+00
        Br   5.487247e+00   2.743624e+00   2.743624e+00
        Br   8.230871e+00  -1.152552e-17   2.743624e+00
        Br   8.230871e+00   2.743624e+00  -1.707423e-18
        Cd   8.230871e+00   2.743624e+00   2.743624e+00
        Cs   5.487247e+00  -1.084497e-19  -8.643423e-18
        Br   5.487247e+00   2.743624e+00   8.230871e+00
        Br   8.230871e+00  -1.152552e-17   8.230871e+00
        Br   8.230871e+00   2.743624e+00   5.487247e+00
        Cd   8.230871e+00   2.743624e+00   8.230871e+00
        Cs   5.487247e+00  -1.084497e-19   5.487247e+00
        Br   5.487247e+00   8.230871e+00   2.743624e+00
        Br   8.230871e+00   5.487247e+00   2.743624e+00
        Br   8.230871e+00   8.230871e+00  -1.707423e-18
        Cd   8.230871e+00   8.230871e+00   2.743624e+00
        Cs   5.487247e+00   5.487247e+00  -8.643423e-18
        Br   5.487247e+00   8.230871e+00   8.230871e+00
        Br   8.230871e+00   5.487247e+00   8.230871e+00
        Br   8.230871e+00   8.230871e+00   5.487247e+00
        Cd   8.230871e+00   8.230871e+00   8.230871e+00
        Cs   5.487247e+00   5.487247e+00   5.487247e+00
PRIMCOORD         12
        40         1
        Br   3.265410e-02   2.779734e+00   2.776558e+00
        Br   2.761966e+00   2.765911e-02   2.792136e+00
        Br   2.788925e+00   2.780852e+00   4.097499e-03
        Cd   2.746961e+00   2.764298e+00   2.743991e+00
        Cs   1.864433e-03   2.602593e-04   2.074262e-02
        Br   3.265410e-02   2.779734e+00   8.263805e+00
        Br   2.761966e+00   2.765911e-02   8.279383e+00
        Br   2.788925e+00   2.780852e+00   5.491345e+00
        Cd   2.746961e+00   2.764298e+00   8.231239e+00
        Cs   1.864433e-03   2.602593e-04   5.507990e+00
        Br   3.265410e-02   8.266981e+00   2.776558e+00
        Br   2.761966e+00   5.514906e+00   2.792136e+00
        Br   2.788925e+00   8.268099e+00   4.097499e-03
        Cd   2.746961e+00   8.251545e+00   2.743991e+00
        Cs   1.864433e-03   5.487508e+00   2.074262e-02
        Br   3.265410e-02   8.266981e+00   8.263805e+00
        Br   2.761966e+00   5.514906e+00   8.279383e+00
        Br   2.788925e+00   8.268099e+00   5.491345e+00
        Cd   2.746961e+00   8.251545e+00   8.231239e+00
        Cs   1.864433e-03   5.487508e+00   5.507990e+00
        Br   5.519901e+00   2.779734e+00   2.776558e+00
        Br   8.249213e+00   2.765911e-02   2.792136e+00
        Br   8.276172e+00   2.780852e+00   4.097499e-03
        Cd   8.234209e+00   2.764298e+00   2.743991e+00
        Cs   5.489112e+00   2.602593e-04   2.074262e-02
        Br   5.519901e+00   2.779734e+00   8.263805e+00
        Br   8.249213e+00   2.765911e-02   8.279383e+00
        Br   8.276172e+00   2.780852e+00   5.491345e+00
        Cd   8.234209e+00   2.764298e+00   8.231239e+00
        Cs   5.489112e+00   2.602593e-04   5.507990e+00
        Br   5.519901e+00   8.266981e+00   2.776558e+00
        Br   8.249213e+00   5.514906e+00   2.792136e+00
        Br   8.276172e+00   8.268099e+00   4.097499e-03
        Cd   8.234209e+00   8.251545e+00   2.743991e+00
        Cs   5.489112e+00   5.487508e+00   2.074262e-02
        Br   5.519901e+00   8.266981e+00   8.263805e+00
        Br   8.249213e+00   5.514906e+00   8.279383e+00
        Br   8.276172e+00   8.268099e+00   5.491345e+00
        Cd   8.234209e+00   8.251545e+00   8.231239e+00
        Cs   5.489112e+00   5.487508e+00   5.507990e+00
PRIMCOORD         13
        40         1
        Br   5.283544e-02   2.802051e+00   2.796912e+00
        Br   2.773302e+00   4.475339e-02   2.822118e+00
        Br   2.816922e+00   2.803860e+00   6.629892e-03
        Cd   2.749024e+00   2.777075e+00   2.744219e+00
        Cs   3.016717e-03   4.211083e-04   3.356227e-02
        Br   5.283544e-02   2.802051e+00   8.284160e+00
        Br   2.773302e+00   4.475339e-02   8.309366e+00
        Br   2.816922e+00   2.803860e+00   5.493877e+00
        Cd   2.749024e+00   2.777075e+00   8.231466e+00
        Cs   3.016717e-03   4.211083e-04   5.520810e+00
        Br   5.283544e-02   8.289299e+00   2.796912e+00
        Br   2.773302e+00   5.532001e+00   2.822118e+00
        Br   2.816922e+00   8.291107e+00   6.629892e-03
        Cd   2.749024e+00   8.264322e+00   2.744219e+00
        Cs   3.016717e-03   5.487668e+00   3.356227e-02
        Br   5.283544e-02   8.289299e+00   8.284160e+00
        Br   2.773302e+00   5.532001e+00   8.309366e+00
        Br   2.816922e+00   8.291107e+00   5.493877e+00
        Cd   2.749024e+00   8.264322e+00   8.231466e+00
        Cs   3.016717e-03   5.487668e+00   5.520810e+00
        Br   5.540083e+00   2.802051e+00   2.796912e+00
        Br   8.260549e+00   4.475339e-02   2.822118e+00
        Br   8.304170e+00   2.803860e+00   6.629892e-03
        Cd   8.236272e+00   2.777075e+00   2.744219e+00
        Cs   5.490264e+00   4.211083e-04   3.356227e-02
        Br   5.540083e+00   2.802051e+00   8.284160e+00
        Br   8.260549e+00   4.475339e-02   8.309366e+00
        Br   8.304170e+00   2.803860e+00   5.493877e+00
        Cd   8.236272e+00   2.777075e+00   8.231466e+00
        Cs   5.490264e+00   4.211083e-04   5.520810e+00
        Br   5.540083e+00   8.289299e+00   2.796912e+00
        Br   8.260549e+00   5.532001e+00   2.822118e+00
        Br   8.304170e+00   8.291107e+00   6.629892e-03
        Cd   8.236272e+00   8.264322e+00   2.744219e+00
        Cs   5.490264e+00   5.487668e+00   3.356227e-02
        Br   5.540083e+00   8.289299e+00   8.284160e+00
        Br   8.260549e+00   5.532001e+00   8.309366e+00
        Br   8.304170e+00   8.291107e+00   5.493877e+00
        Cd   8.236272e+00   8.264322e+00   8.231466e+00
        Cs   5.490264e+00   5.487668e+00   5.520810e+00
PRIMCOORD         14
        40         1