ANIMSTEPS 3750
CRYSTAL
PRIMVEC
   5.487247e+00  -0.000000e+00   0.000000e+00
   0.000000e+00   5.487247e+00   0.000000e+00
  -0.000000e+00   0.000000e+00   5.487247e+00
PRIMCOORD          1
         5         1
        Br   0.000000e+00   2.743624e+00   2.743624e+00   5.997274e-05  -4.536605e-05  -5.306427e-07
        Br   2.743624e+00   0.000000e+00   2.743624e+00   5.997274e-05  -4.536605e-05  -5.306427e-07
        Br   2.743624e+00   2.743624e+00   0.000000e+00   5.997274e-05  -4.536605e-05  -5.306427e-07
        Cd   2.743624e+00   2.743624e+00   2.743624e+00   5.997274e-05  -4.536605e-05  -5.306427e-07
        Cs   0.000000e+00   0.000000e+00   0.000000e+00   5.997274e-05  -4.536605e-05  -5.306427e-07
PRIMCOORD          2
         5         1
        Br   0.000000e+00   2.743624e+00   2.743624e+00   4.520983e-05   5.983169e-05  -5.597329e-06
        Br   2.743624e+00   0.000000e+00   2.743624e+00   4.520983e-05   5.983169e-05  -5.597329e-06
        Br   2.743624e+00   2.743624e+00   0.000000e+00   4.520983e-05   5.983169e-05  -5.597329e-06
        Cd   2.743624e+00   2.743624e+00   2.743624e+00   4.520983e-05   5.983169e-05  -5.597329e-06
        Cs   0.000000e+00   0.000000e+00   0.000000e+00   4.520983e-05   5.983169e-05  -5.597329e-06
PRIMCOORD          3
         5         1
        Br   0.000000e+00   2.743624e+00   2.743624e+00   3.798893e-06   4.144887e-06   7.498985e-05
        Br   2.743624e+00   0.000000e+00   2.743624e+00   3.798893e-06   4.144887e-06   7.498985e-05
        Br   2.743624e+00   2.743624e+00   0.000000e+00   3.798893e-06   4.144887e-06   7.498985e-05
        Cd   2.743624e+00   2.743624e+00   2.743624e+00   3.798893e-06   4.144887e-06   7.498985e-05
        Cs   0.000000e+00   0.000000e+00   0.000000e+00   3.798893e-06   4.144887e-06   7.498985e-05
PRIMCOORD          4
         5         1
        Br   0.000000e+00   2.743624e+00   2.743624e+00   5.394607e-07  -7.525714e-20  -3.780588e-05
        Br   2.743624e+00   0.000000e+00   2.743624e+00  -3.241971e-07   3.027689e-19  -3.780588e-05
        Br   2.743624e+00   2.743624e+00   0.000000e+00  -3.241971e-07  -9.908086e-20   6.290860e-05
        Cd   2.743624e+00   2.743624e+00   2.743624e+00   9.172705e-07   4.444626e-19   1.069665e-04
        Cs   0.000000e+00   0.000000e+00   0.000000e+00  -7.103014e-07  -3.825027e-19  -8.283099e-05
PRIMCOORD          5
         5         1
        Br   0.000000e+00   2.743624e+00   2.743624e+00  -6.290860e-05   1.907383e-18  -3.241971e-07
        Br   2.743624e+00   0.000000e+00   2.743624e+00   3.780588e-05  -4.418407e-18  -3.241971e-07
        Br   2.743624e+00   2.743624e+00   0.000000e+00   3.780588e-05   1.639320e-18   5.394607e-07
        Cd   2.743624e+00   2.743624e+00   2.743624e+00  -1.069665e-04  -6.612980e-18   9.172705e-07
        Cs   0.000000e+00   0.000000e+00   0.000000e+00   8.283099e-05   6.369681e-18  -7.103014e-07
PRIMCOORD          6
         5         1
        Br   0.000000e+00   2.743624e+00   2.743624e+00  -4.203202e-18  -2.538523e-05   3.120579e-19
        Br   2.743624e+00   0.000000e+00   2.743624e+00   2.518308e-18   6.665307e-05  -4.565539e-20
        Br   2.743624e+00   2.743624e+00   0.000000e+00   2.333835e-18  -2.538523e-05  -2.646551e-19
        Cd   2.743624e+00   2.743624e+00   2.743624e+00  -7.113759e-18   9.961731e-05  -4.323945e-19
        Cs   0.000000e+00   0.000000e+00   0.000000e+00   5.554665e-18  -9.380081e-05   2.637073e-19
PRIMCOORD          7
         5         1
        Br   0.000000e+00   2.743624e+00   2.743624e+00  -5.051201e-20   4.189216e-06   3.638058e-05
        Br   2.743624e+00   0.000000e+00   2.743624e+00  -1.257880e-04  -9.290944e-22  -3.638058e-05
        Br   2.743624e+00   2.743624e+00   0.000000e+00   1.257880e-04  -4.189216e-06  -1.317398e-20
        Cd   2.743624e+00   2.743624e+00   2.743624e+00   3.639714e-21   1.648092e-20  -6.476351e-21
        Cs   0.000000e+00   0.000000e+00   0.000000e+00   2.162908e-19  -4.036209e-20   1.346967e-20
PRIMCOORD          8
         5         1
        Br   0.000000e+00   2.743624e+00   2.743624e+00   2.717181e-20   1.231179e-05   1.251854e-04
        Br   2.743624e+00   0.000000e+00   2.743624e+00   3.661633e-05  -1.174453e-19  -1.251854e-04
        Br   2.743624e+00   2.743624e+00   0.000000e+00  -3.661633e-05  -1.231179e-05  -6.112416e-20
        Cd   2.743624e+00   2.743624e+00   2.743624e+00   4.223639e-20  -1.456517e-19  -5.742244e-20
        Cs   0.000000e+00   0.000000e+00   0.000000e+00   9.882119e-21   9.578972e-20   1.291273e-19
PRIMCOORD          9
         5         1
        Br   0.000000e+00   2.743624e+00   2.743624e+00  -9.825997e-20  -1.303633e-04   1.299186e-05
        Br   2.743624e+00   0.000000e+00   2.743624e+00  -5.840652e-07   6.036385e-20  -1.299186e-05
        Br   2.743624e+00   2.743624e+00   0.000000e+00   5.840652e-07   1.303633e-04  -2.981371e-21
        Cd   2.743624e+00   2.743624e+00   2.743624e+00  -1.350065e-19   5.776933e-20  -7.020360e-22
        Cs   0.000000e+00   0.000000e+00   0.000000e+00   9.746884e-20   1.398636e-19  -8.890922e-21
PRIMCOORD         10
         5         1
        Br   0.000000e+00   2.743624e+00   2.743624e+00   2.391653e-06   6.882447e-20   9.368696e-05
        Br   2.743624e+00   0.000000e+00   2.743624e+00   2.418088e-05  -1.725480e-20   9.368696e-05
        Br   2.743624e+00   2.743624e+00   0.000000e+00   2.418088e-05   4.229718e-20   9.266273e-06
        Cd   2.743624e+00   2.743624e+00   2.743624e+00  -9.460532e-06  -1.988930e-20  -3.665410e-05
        Cs   0.000000e+00   0.000000e+00   0.000000e+00  -2.251104e-05  -5.014992e-20  -8.721729e-05
PRIMCOORD         11
         5         1
        Br   0.000000e+00   2.743624e+00   2.743624e+00  -9.266273e-06  -1.111993e-19   2.418088e-05
        Br   2.743624e+00   0.000000e+00   2.743624e+00  -9.368696e-05   1.508947e-20   2.418088e-05
        Br   2.743624e+00   2.743624e+00   0.000000e+00  -9.368696e-05  -1.323143e-19   2.391653e-06
        Cd   2.743624e+00   2.743624e+00   2.743624e+00   3.665410e-05   4.868165e-21  -9.460532e-06
        Cs   0.000000e+00   0.000000e+00   0.000000e+00   8.721729e-05   2.033918e-19  -2.251104e-05
PRIMCOORD         12
         5         1
        Br   0.000000e+00   2.743624e+00   2.743624e+00   1.287078e-20  -1.041918e-04   7.828562e-20
        Br   2.743624e+00   0.000000e+00   2.743624e+00   1.236513e-19   3.383620e-05  -2.413951e-20
        Br   2.743624e+00   2.743624e+00   0.000000e+00   4.352313e-20  -1.041918e-04   1.494090e-20
        Cd   2.743624e+00   2.743624e+00   2.743624e+00  -2.292489e-20   3.244185e-05   1.939921e-21
        Cs   0.000000e+00   0.000000e+00   0.000000e+00  -9.272053e-20   7.749786e-05  -9.944489e-21
PRIMCOORD         13
         5         1
        Br   0.000000e+00   2.743624e+00   2.743624e+00   1.568466e-04  -1.527974e-20   8.025693e-07
        Br   2.743624e+00   0.000000e+00   2.743624e+00  -2.677002e-05   1.301835e-21   8.025693e-07
        Br   2.743624e+00   2.743624e+00   0.000000e+00  -2.677002e-05   2.919356e-20  -4.702287e-06
        Cd   2.743624e+00   2.743624e+00   2.743624e+00  -7.658198e-05  -1.720448e-20   2.295940e-06
        Cs   0.000000e+00   0.000000e+00   0.000000e+00   2.663223e-06  -1.090001e-20  -7.984383e-08
PRIMCOORD         14
         5         1
        Br   0.000000e+00   2.743624e+00   2.743624e+00  -4.702287e-06   8.561673e-22   2.677002e-05
        Br   2.743624e+00   0.000000e+00   2.743624e+00   8.025693e-07   4.163551e-21   2.677002e-05
        Br   2.743624e+00   2.743624e+00   0.000000e+00   8.025693e-07  -2.402263e-22  -1.568466e-04
        Cd   2.743624e+00   2.743624e+00   2.743624e+00   2.295940e-06  -5.712488e-21   7.658198e-05
        Cs   0.000000e+00   0.000000e+00   0.000000e+00  -7.984383e-08   5.229019e-21  -2.663223e-06
PRIMCOORD         15
         5         1
        Br   0.000000e+00   2.743624e+00   2.743624e+00   1.786899e-20   2.880360e-06   4.547989e-21
        Br   2.743624e+00   0.000000e+00   2.743624e+00   9.778245e-21  -1.519369e-04  -1.403745e-20
        Br   2.743624e+00   2.743624e+00   0.000000e+00   2.978605e-20   2.880360e-06  -5.052393e-21
        Cd   2.743624e+00   2.743624e+00   2.743624e+00   9.056179e-20   8.814578e-05   1.930214e-21
        Cs   0.000000e+00   0.000000e+00   0.000000e+00   3.539572e-21   1.332929e-05  -8.603837e-23
PRIMCOORD         16
         5         1
        Br   0.000000e+00   2.743624e+00   2.743624e+00   7.498546e-05   5.543490e-17  -5.572229e-06
        Br   2.743624e+00   0.000000e+00   2.743624e+00   7.495629e-05   5.497985e-17  -5.574330e-06
        Br   2.743624e+00   2.743624e+00   0.000000e+00   7.499388e-05   5.564060e-17  -5.571604e-06
        Cd   2.743624e+00   2.743624e+00   2.743624e+00   7.499657e-05   5.539370e-17  -5.572429e-06
        Cs   0.000000e+00   0.000000e+00   0.000000e+00   7.497077e-05   5.515449e-17  -5.575407e-06
PRIMCOORD         17
         5         1
        Br   0.000000e+00   2.743624e+00   2.743624e+00  -5.574407e-06   1.392585e-18  -7.495617e-05
        Br   2.743624e+00   0.000000e+00   2.743624e+00  -5.572238e-06   1.414027e-18  -7.498442e-05
        Br   2.743624e+00   2.743624e+00   0.000000e+00  -5.575033e-06   1.354736e-18  -7.494775e-05
        Cd   2.743624e+00   2.743624e+00   2.743624e+00  -5.575233e-06   1.352625e-18  -7.495885e-05
        Cs   0.000000e+00   0.000000e+00   0.000000e+00  -5.573315e-06   1.454153e-18  -7.499891e-05
PRIMCOORD         18
         5         1
        Br   0.000000e+00   2.743624e+00   2.743624e+00  -5.285263e-17   7.459398e-05   5.472419e-18
        Br   2.743624e+00   0.000000e+00   2.743624e+00  -5.340847e-17   7.469382e-05   5.570080e-18
        Br   2.743624e+00   2.743624e+00   0.000000e+00  -5.272563e-17   7.459398e-05   5.530823e-18
        Cd   2.743624e+00   2.743624e+00   2.743624e+00  -5.294380e-17   7.436969e-05   5.499930e-18
        Cs   0.000000e+00   0.000000e+00   0.000000e+00  -5.344454e-17   7.497087e-05   5.545351e-18
PRIMCOORD         19
         5         1
        Br   0.000000e+00   2.743624e+00   2.743624e+00  -6.270811e-05   4.567268e-19   3.018886e-06
        Br   2.743624e+00   0.000000e+00   2.743624e+00   3.769632e-05  -1.522303e-18   3.027670e-06
        Br   2.743624e+00   2.743624e+00   0.000000e+00   3.763310e-05   5.480053e-19  -5.030376e-06
        Cd   2.743624e+00   2.743624e+00   2.743624e+00  -1.066243e-04  -2.215749e-18  -8.553284e-06
        Cs   0.000000e+00   0.000000e+00   0.000000e+00   8.251323e-05   1.909721e-18   6.627249e-06
PRIMCOORD         20
         5         1
        Br   0.000000e+00   2.743624e+00   2.743624e+00  -5.032864e-06   6.969442e-21  -3.761449e-05
        Br   2.743624e+00   0.000000e+00   2.743624e+00   3.025453e-06   5.387275e-20  -3.772395e-05
        Br   2.743624e+00   2.743624e+00   0.000000e+00   3.020379e-06  -2.215299e-20   6.267711e-05
        Cd   2.743624e+00   2.743624e+00   2.743624e+00  -8.557515e-06   8.167757e-20   1.065716e-04
        Cs   0.000000e+00   0.000000e+00   0.000000e+00   6.622395e-06  -6.629031e-20  -8.257371e-05
PRIMCOORD         21
         5         1
        Br   0.000000e+00   2.743624e+00   2.743624e+00   1.317556e-18   2.510662e-05  -2.420967e-19
        Br   2.743624e+00   0.000000e+00   2.743624e+00  -8.897536e-19  -6.622570e-05   2.838480e-20
        Br   2.743624e+00   2.743624e+00   0.000000e+00  -6.804202e-19   2.510662e-05   1.681969e-19
        Cd   2.743624e+00   2.743624e+00   2.743624e+00   2.296806e-18  -9.929077e-05   2.730349e-19
        Cs   0.000000e+00   0.000000e+00   0.000000e+00  -1.786621e-18   9.294403e-05  -1.869737e-19
PRIMCOORD         22
         5         1
        Br   0.000000e+00   2.743624e+00   2.743624e+00  -1.191137e-08  -4.978973e-14   1.046558e-05
        Br   2.743624e+00   0.000000e+00   2.743624e+00  -1.305473e-04   6.252677e-20  -1.046387e-05
        Br   2.743624e+00   2.743624e+00   0.000000e+00   1.305721e-04   4.978953e-14  -9.547167e-10
        Cd   2.743624e+00   2.743624e+00   2.743624e+00  -5.814246e-08   8.823982e-20  -4.660217e-09
        Cs   0.000000e+00   0.000000e+00   0.000000e+00  -7.539439e-09  -4.645519e-20  -6.043154e-10
PRIMCOORD         23
         5         1
        Br   0.000000e+00   2.743624e+00   2.743624e+00  -9.547425e-10  -6.057029e-15  -1.305686e-04
        Br   2.743624e+00   0.000000e+00   2.743624e+00  -1.046387e-05   4.744052e-20   1.305473e-04
        Br   2.743624e+00   2.743624e+00   0.000000e+00   1.046586e-05   6.056889e-15   1.191105e-08
        Cd   2.743624e+00   2.743624e+00   2.743624e+00  -4.660343e-09   9.229341e-20   5.814089e-08
        Cs   0.000000e+00   0.000000e+00   0.000000e+00  -6.043152e-10  -1.169816e-19   7.539442e-09
PRIMCOORD         24
         5         1
        Br   0.000000e+00   2.743624e+00   2.743624e+00   4.533818e-18  -1.309732e-04   2.060462e-15
        Br   2.743624e+00   0.000000e+00   2.743624e+00   5.009891e-14   7.527997e-20  -2.059694e-15
        Br   2.743624e+00   2.743624e+00   0.000000e+00  -5.009092e-14   1.309732e-04  -2.088776e-19
        Cd   2.743624e+00   2.743624e+00   2.743624e+00   2.228697e-17   1.174641e-19  -9.068570e-19
        Cs   0.000000e+00   0.000000e+00   0.000000e+00   2.799298e-18  -1.853364e-20  -1.568406e-19
PRIMCOORD         25
         5         1
        Br   0.000000e+00   2.743624e+00   2.743624e+00  -9.401660e-06   3.136733e-20  -3.468104e-07
        Br   2.743624e+00   0.000000e+00   2.743624e+00  -9.569504e-05   2.440269e-20  -3.473367e-07
        Br   2.743624e+00   2.743624e+00   0.000000e+00  -9.508037e-05  -2.986826e-20  -3.429302e-08
        Cd   2.743624e+00   2.743624e+00   2.743624e+00   3.721471e-05   1.099545e-20   1.357425e-07
        Cs   0.000000e+00   0.000000e+00   0.000000e+00   8.902582e-05  -1.118319e-20   3.231299e-07
PRIMCOORD         26
         5         1
        Br   0.000000e+00   2.743624e+00   2.743624e+00   3.373049e-08  -4.179696e-20  -9.666604e-05
        Br   2.743624e+00   0.000000e+00   2.743624e+00   3.433267e-07   9.206991e-21  -9.681273e-05
        Br   2.743624e+00   2.743624e+00   0.000000e+00   3.411215e-07   1.518012e-20  -9.558453e-06
        Cd   2.743624e+00   2.743624e+00   2.743624e+00  -1.335159e-07   1.136225e-20   3.783535e-05
        Cs   0.000000e+00   0.000000e+00   0.000000e+00  -3.193994e-07   8.575736e-21   9.006561e-05
PRIMCOORD         27
         5         1
        Br   0.000000e+00   2.743624e+00   2.743624e+00  -5.184574e-20  -1.040700e-04   1.358563e-20
        Br   2.743624e+00   0.000000e+00   2.743624e+00   6.390273e-20   3.386206e-05  -2.292197e-20
        Br   2.743624e+00   2.743624e+00   0.000000e+00  -3.017456e-20  -1.040700e-04  -2.028476e-21
        Cd   2.743624e+00   2.743624e+00   2.743624e+00  -1.420305e-21   3.244826e-05  -7.265300e-21
        Cs   0.000000e+00   0.000000e+00   0.000000e+00  -3.311974e-21   7.746432e-05  -9.104766e-21
PRIMCOORD         28
         5         1
        Br   0.000000e+00   2.743624e+00   2.743624e+00   3.743690e-06   1.094519e-20   2.676173e-05
        Br   2.743624e+00   0.000000e+00   2.743624e+00  -6.387600e-07  -1.146073e-21   2.676018e-05
        Br   2.743624e+00   2.743624e+00   0.000000e+00  -6.389695e-07  -4.440392e-21  -1.567956e-04
        Cd   2.743624e+00   2.743624e+00   2.743624e+00  -1.827798e-06  -1.126350e-20   7.655302e-05
        Cs   0.000000e+00   0.000000e+00   0.000000e+00   6.354541e-08   1.845297e-23  -2.662168e-06
PRIMCOORD         29
         5         1
        Br   0.000000e+00   2.743624e+00   2.743624e+00  -1.568324e-04   3.251767e-20   6.388196e-07
        Br   2.743624e+00   0.000000e+00   2.743624e+00   2.675923e-05   5.371500e-20   6.387827e-07
        Br   2.743624e+00   2.743624e+00   0.000000e+00   2.676801e-05   2.242963e-20  -3.742812e-06
        Cd   2.743624e+00   2.743624e+00   2.743624e+00   7.657098e-05  -3.979198e-21   1.827370e-06
        Cs   0.000000e+00   0.000000e+00   0.000000e+00  -2.662074e-06  -4.583191e-20  -6.354766e-08
PRIMCOORD         30
         5         1
        Br   0.000000e+00   2.743624e+00   2.743624e+00   5.909010e-20  -2.058991e-06  -6.302049e-21
        Br   2.743624e+00   0.000000e+00   2.743624e+00  -2.313716e-20   1.120181e-04   8.585799e-21
        Br   2.743624e+00   2.743624e+00   0.000000e+00  -5.841289e-20  -2.058991e-06   4.350500e-21
        Cd   2.743624e+00   2.743624e+00   2.743624e+00  -1.284427e-19  -6.303512e-05  -7.539849e-22
        Cs   0.000000e+00   0.000000e+00   0.000000e+00   2.029381e-20  -9.826746e-06   6.700587e-23
PRIMCOORD         31
         5         1
        Br   0.000000e+00   2.743624e+00   2.743624e+00  -7.241212e-05  -8.479011e-18   8.860520e-07
        Br   2.743624e+00   0.000000e+00   2.743624e+00  -7.354781e-05  -8.792366e-18   8.873904e-07
        Br   2.743624e+00   2.743624e+00   0.000000e+00  -7.244456e-05  -8.493458e-18   8.856552e-07
        Cd   2.743624e+00   2.743624e+00   2.743624e+00  -7.245503e-05  -8.398666e-18   8.861800e-07
        Cs   0.000000e+00   0.000000e+00   0.000000e+00  -7.360461e-05  -8.896469e-18   8.880758e-07
PRIMCOORD         32
         5         1
        Br   0.000000e+00   2.743624e+00   2.743624e+00   8.549571e-07  -4.972781e-18   7.504575e-05
        Br   2.743624e+00   0.000000e+00   2.743624e+00   8.683660e-07  -4.906908e-18   7.515912e-05
        Br   2.743624e+00   2.743624e+00   0.000000e+00   8.553401e-07  -4.962942e-18   7.501215e-05
        Cd   2.743624e+00   2.743624e+00   2.743624e+00   8.554637e-07  -4.849480e-18   7.505660e-05
        Cs   0.000000e+00   0.000000e+00   0.000000e+00   8.690367e-07  -5.088889e-18   7.521717e-05
PRIMCOORD         33
         5         1
        Br   0.000000e+00   2.743624e+00   2.743624e+00   1.003021e-17  -7.483192e-05  -4.997765e-18
        Br   2.743624e+00   0.000000e+00   2.743624e+00   9.984595e-18  -7.455646e-05  -5.164295e-18
        Br   2.743624e+00   2.743624e+00   0.000000e+00   1.010904e-17  -7.483192e-05  -5.043468e-18
        Cd   2.743624e+00   2.743624e+00   2.743624e+00   1.009912e-17  -7.393605e-05  -5.093932e-18
        Cs   0.000000e+00   0.000000e+00   0.000000e+00   9.982521e-18  -7.566614e-05  -5.114200e-18
PRIMCOORD         34
         5         1
        Br   0.000000e+00   2.743624e+00   2.743624e+00  -4.131950e-06   4.124595e-20   3.743873e-05
        Br   2.743624e+00   0.000000e+00   2.743624e+00   2.501969e-06  -1.421916e-19   3.787646e-05
        Br   2.743624e+00   2.743624e+00   0.000000e+00   2.469381e-06   5.440241e-20  -6.264525e-05
        Cd   2.743624e+00   2.743624e+00   2.743624e+00  -7.025412e-06  -2.124850e-19  -1.065135e-04
        Cs   0.000000e+00   0.000000e+00   0.000000e+00   5.461155e-06   1.879938e-19   8.267458e-05
PRIMCOORD         35
         5         1
        Br   0.000000e+00   2.743624e+00   2.743624e+00   6.253547e-05  -3.344276e-19   2.473716e-06
        Br   2.743624e+00   0.000000e+00   2.743624e+00  -3.786633e-05   8.218339e-19   2.502638e-06
        Br   2.743624e+00   2.743624e+00   0.000000e+00  -3.737312e-05  -2.908131e-19  -4.139204e-06
        Cd   2.743624e+00   2.743624e+00   2.743624e+00   1.063269e-04   1.233786e-18  -7.037744e-06
        Cs   0.000000e+00   0.000000e+00   0.000000e+00  -8.265247e-05  -1.250280e-18   5.462616e-06
PRIMCOORD         36
         5         1
        Br   0.000000e+00   2.743624e+00   2.743624e+00   3.515789e-19   1.271219e-05  -3.368989e-20
        Br   2.743624e+00   0.000000e+00   2.743624e+00  -4.862968e-19  -3.073690e-05  -1.391855e-20
        Br   2.743624e+00   2.743624e+00   0.000000e+00  -2.628562e-19   1.271219e-05   8.090552e-20
        Cd   2.743624e+00   2.743624e+00   2.743624e+00   7.131483e-19  -5.146847e-05   1.410802e-19
        Cs   0.000000e+00   0.000000e+00   0.000000e+00  -3.294269e-19   4.278600e-05  -3.974269e-20
PRIMCOORD         37
         5         1
        Br   0.000000e+00   2.743624e+00   2.743624e+00   4.767002e-08   4.585220e-15  -3.360889e-06
        Br   2.743624e+00   0.000000e+00   2.743624e+00   1.307895e-04  -5.889280e-20   3.358698e-06
        Br   2.743624e+00   2.743624e+00   0.000000e+00  -1.308730e-04  -4.585099e-15   1.224191e-09
        Cd   2.743624e+00   2.743624e+00   2.743624e+00   2.327792e-07  -1.370250e-19   5.977893e-09
        Cs   0.000000e+00   0.000000e+00   0.000000e+00   3.027105e-08   1.165758e-19   7.773659e-10
PRIMCOORD         38
         5         1
        Br   0.000000e+00   2.743624e+00   2.743624e+00  -1.224174e-09  -7.116494e-16  -1.308749e-04
        Br   2.743624e+00   0.000000e+00   2.743624e+00  -3.358698e-06  -7.152310e-21   1.307895e-04
        Br   2.743624e+00   2.743624e+00   0.000000e+00   3.360842e-06   7.115208e-16   4.767068e-08
        Cd   2.743624e+00   2.743624e+00   2.743624e+00  -5.977810e-09   3.799173e-21   2.327824e-07
        Cs   0.000000e+00   0.000000e+00   0.000000e+00  -7.773659e-10  -7.015172e-20   3.027105e-08
PRIMCOORD         39
         5         1
        Br   0.000000e+00   2.743624e+00   2.743624e+00   1.676350e-18  -1.308677e-04   5.942845e-16
        Br   2.743624e+00   0.000000e+00   2.743624e+00   4.591321e-15   5.544466e-20  -5.936491e-16
        Br   2.743624e+00   2.743624e+00   0.000000e+00  -4.581647e-15   1.308677e-04  -2.244110e-19
        Cd   2.743624e+00   2.743624e+00   2.743624e+00   8.114564e-18   1.181786e-20  -1.054923e-18
        Cs   0.000000e+00   0.000000e+00   0.000000e+00   1.144984e-18   1.712460e-19  -1.551589e-19
PRIMCOORD         40
         5         1
        Br   0.000000e+00   2.743624e+00   2.743624e+00  -4.688005e-06   6.573566e-20   8.390223e-05
        Br   2.743624e+00   0.000000e+00   2.743624e+00  -4.774818e-05  -1.438467e-21   8.441282e-05
        Br   2.743624e+00   2.743624e+00   0.000000e+00  -4.744720e-05  -3.517274e-20   8.289932e-06
        Cd   2.743624e+00   2.743624e+00   2.743624e+00   1.859410e-05   2.449682e-20  -3.288048e-05
        Cs   0.000000e+00   0.000000e+00   0.000000e+00   4.432957e-05  -8.748410e-21  -7.836914e-05
PRIMCOORD         41
         5         1
        Br   0.000000e+00   2.743624e+00   2.743624e+00  -8.287741e-06  -3.013211e-20  -4.745974e-05
        Br   2.743624e+00   0.000000e+00   2.743624e+00  -8.441215e-05   4.789677e-20  -4.774856e-05
        Br   2.743624e+00   2.743624e+00   0.000000e+00  -8.388005e-05  -1.494952e-19  -4.689244e-06
        Cd   2.743624e+00   2.743624e+00   2.743624e+00   3.287179e-05   1.211179e-19   1.859902e-05
        Cs   0.000000e+00   0.000000e+00   0.000000e+00   7.836851e-05  -5.839410e-20   4.432992e-05
PRIMCOORD         42
         5         1
        Br   0.000000e+00   2.743624e+00   2.743624e+00   4.417768e-20  -1.038981e-04   6.599158e-20
        Br   2.743624e+00   0.000000e+00   2.743624e+00   8.519212e-20   3.395598e-05   4.045596e-20
        Br   2.743624e+00   2.743624e+00   0.000000e+00   2.265503e-20  -1.038981e-04   1.474461e-20
        Cd   2.743624e+00   2.743624e+00   2.743624e+00   1.031315e-20   3.252814e-05  -8.643724e-21
        Cs   0.000000e+00   0.000000e+00   0.000000e+00  -1.053766e-19   7.739966e-05  -1.838869e-20
PRIMCOORD         43
         5         1
        Br   0.000000e+00   2.743624e+00   2.743624e+00   2.492284e-07  -3.733476e-20   2.673125e-05
        Br   2.743624e+00   0.000000e+00   2.743624e+00  -4.257550e-08  -1.856842e-20   2.672507e-05
        Br   2.743624e+00   2.743624e+00   0.000000e+00  -4.254007e-08  -3.397746e-20  -1.566096e-04
        Cd   2.743624e+00   2.743624e+00   2.743624e+00  -1.216626e-07  -4.101521e-20   7.645014e-05
        Cs   0.000000e+00   0.000000e+00   0.000000e+00   4.235155e-09  -1.819484e-20  -2.658449e-06
PRIMCOORD         44
         5         1
        Br   0.000000e+00   2.743624e+00   2.743624e+00   1.564217e-04   3.120718e-20  -4.259118e-08
        Br   2.743624e+00   0.000000e+00   2.743624e+00  -2.672140e-05   7.265944e-20  -4.258134e-08
        Br   2.743624e+00   2.743624e+00   0.000000e+00  -2.669917e-05  -2.385386e-20   2.495278e-07
        Cd   2.743624e+00   2.743624e+00   2.743624e+00  -7.635838e-05  -8.307034e-20  -1.218088e-07
        Cs   0.000000e+00   0.000000e+00   0.000000e+00   2.658084e-06  -2.841631e-20   4.235735e-09
PRIMCOORD         45
         5         1
        Br   0.000000e+00   2.743624e+00   2.743624e+00  -9.635980e-20  -2.202673e-06   4.489036e-21
        Br   2.743624e+00   0.000000e+00   2.743624e+00   4.158848e-21   1.224630e-04  -1.075781e-20
        Br   2.743624e+00   2.743624e+00   0.000000e+00   7.633188e-21  -2.202673e-06   7.114972e-21
        Cd   2.743624e+00   2.743624e+00   2.743624e+00   3.996867e-20  -6.751482e-05  -2.785327e-21
        Cs   0.000000e+00   0.000000e+00   0.000000e+00   2.566852e-21  -1.074137e-05   1.381165e-22
PRIMCOORD         46
         5         1
        Br   0.000000e+00   2.743624e+00   2.743624e+00   1.637682e-05  -4.973340e-19  -7.305838e-05
        Br   2.743624e+00   0.000000e+00   2.743624e+00   1.638685e-05  -5.057040e-19  -7.330751e-05
        Br   2.743624e+00   2.743624e+00   0.000000e+00   1.639325e-05  -5.293788e-19  -7.298516e-05
        Cd   2.743624e+00   2.743624e+00   2.743624e+00   1.639865e-05  -5.301441e-19  -7.308245e-05
        Cs   0.000000e+00   0.000000e+00   0.000000e+00   1.641529e-05  -4.835987e-19  -7.343473e-05
PRIMCOORD         47
         5         1
        Br   0.000000e+00   2.743624e+00   2.743624e+00   7.320582e-05  -4.771840e-18   1.634384e-05
        Br   2.743624e+00   0.000000e+00   2.743624e+00   7.325064e-05  -4.788599e-18   1.639957e-05
        Br   2.743624e+00   2.743624e+00   0.000000e+00   7.327926e-05  -4.874497e-18   1.632746e-05
        Cd   2.743624e+00   2.743624e+00   2.743624e+00   7.330340e-05  -4.772724e-18   1.634922e-05
        Cs   0.000000e+00   0.000000e+00   0.000000e+00   7.337777e-05  -4.883930e-18   1.642803e-05
PRIMCOORD         48
         5         1
        Br   0.000000e+00   2.743624e+00   2.743624e+00   4.543080e-18   6.945240e-05   5.387233e-19
        Br   2.743624e+00   0.000000e+00   2.743624e+00   4.605417e-18   7.047320e-05   6.459502e-19
        Br   2.743624e+00   2.743624e+00   0.000000e+00   4.431356e-18   6.945240e-05   6.000938e-19
        Cd   2.743624e+00   2.743624e+00   2.743624e+00   4.535740e-18   6.759607e-05   6.123098e-19
        Cs   0.000000e+00   0.000000e+00   0.000000e+00   4.570610e-18   7.284556e-05   5.923942e-19
PRIMCOORD         49
         5         1
        Br   0.000000e+00   2.743624e+00   2.743624e+00   1.731796e-07  -8.250920e-20   3.716266e-05
        Br   2.743624e+00   0.000000e+00   2.743624e+00  -1.212015e-07   2.784197e-19   3.814771e-05
        Br   2.743624e+00   2.743624e+00   0.000000e+00  -1.027763e-07  -5.545935e-20  -6.261961e-05
        Cd   2.743624e+00   2.743624e+00   2.743624e+00   2.944325e-07   4.003633e-19  -1.064632e-04
        Cs   0.000000e+00   0.000000e+00   0.000000e+00  -2.633228e-07  -3.612765e-19   8.287986e-05
PRIMCOORD         50
         5         1
        Br   0.000000e+00   2.743624e+00   2.743624e+00   3.255559e-05   1.875850e-19  -1.976869e-07
        Br   2.743624e+00   0.000000e+00   2.743624e+00  -2.278436e-05  -5.963117e-22  -2.029269e-07
        Br   2.743624e+00   2.743624e+00   0.000000e+00  -1.932067e-05   1.455191e-19   3.331052e-07
        Cd   2.743624e+00   2.743624e+00   2.743624e+00   5.534962e-05  -2.029100e-19   5.663311e-07
        Cs   0.000000e+00   0.000000e+00   0.000000e+00  -4.950138e-05   1.614290e-19  -4.408797e-07
PRIMCOORD         51
         5         1
        Br   0.000000e+00   2.743624e+00   2.743624e+00   8.478200e-19   2.332439e-05   2.659787e-19
        Br   2.743624e+00   0.000000e+00   2.743624e+00  -6.548292e-19  -6.711113e-05   3.858659e-21
        Br   2.743624e+00   2.743624e+00   0.000000e+00  -4.552325e-19   2.332439e-05  -2.265348e-19
        Cd   2.743624e+00   2.743624e+00   2.743624e+00   1.549674e-18  -9.828290e-05  -4.165344e-19
        Cs   0.000000e+00   0.000000e+00   0.000000e+00  -1.188472e-18   9.216895e-05   3.657479e-19
PRIMCOORD         52
         5         1
        Br   0.000000e+00   2.743624e+00   2.743624e+00  -1.068715e-07  -2.772175e-15  -6.997557e-08
        Br   2.743624e+00   0.000000e+00   2.743624e+00  -1.306094e-04   4.035141e-20   6.987300e-08
        Br   2.743624e+00   2.743624e+00   0.000000e+00   1.307901e-04   2.772105e-15   5.717861e-11
        Cd   2.743624e+00   2.743624e+00   2.743624e+00  -5.222004e-07   7.340097e-20   2.793887e-10
        Cs   0.000000e+00   0.000000e+00   0.000000e+00  -6.822995e-08  -8.794192e-20   3.650143e-11
PRIMCOORD         53
         5         1
        Br   0.000000e+00   2.743624e+00   2.743624e+00   5.717373e-11  -4.467438e-16  -1.308012e-04
        Br   2.743624e+00   0.000000e+00   2.743624e+00   6.987297e-08  -1.118946e-19   1.306095e-04
        Br   2.743624e+00   2.743624e+00   0.000000e+00  -6.996960e-08   4.467006e-16   1.068806e-07
        Cd   2.743624e+00   2.743624e+00   2.743624e+00   2.793649e-10  -1.505799e-19   5.222449e-07
        Cs   0.000000e+00   0.000000e+00   0.000000e+00   3.650141e-11   1.073140e-19   6.822998e-08
PRIMCOORD         54
         5         1
        Br   0.000000e+00   2.743624e+00   2.743624e+00  -2.332761e-18   1.305814e-04  -4.487662e-16
        Br   2.743624e+00   0.000000e+00   2.743624e+00  -2.778422e-15  -7.553494e-20   4.482068e-16
        Br   2.743624e+00   2.743624e+00   0.000000e+00   2.789598e-15  -1.305814e-04   3.614160e-19
        Cd   2.743624e+00   2.743624e+00   2.743624e+00  -1.123687e-17  -8.364068e-20   1.787301e-18
        Cs   0.000000e+00   0.000000e+00   0.000000e+00  -1.453656e-18  -6.015683e-20   2.556449e-19
PRIMCOORD         55
         5         1
        Br   0.000000e+00   2.743624e+00   2.743624e+00  -9.317381e-06   1.442146e-19  -4.879630e-06
        Br   2.743624e+00   0.000000e+00   2.743624e+00  -9.665366e-05   1.243245e-20  -4.946729e-06