# Animation of a phonon mode
# K point :        0       0       0
# Mode index :    2
# Frequency (cm^-1) : 1.09737e-10

ANIMSTEPS 20
CRYSTAL
PRIMVEC
   1.151334e+01   0.000000e+00  -0.000000e+00
  -0.000000e+00   1.151334e+01  -0.000000e+00
  -0.000000e+00   0.000000e+00   1.151334e+01
PRIMCOORD          1
        40         1
        Br   0.000000e+00   2.878334e+00   2.878334e+00
        Br   2.878334e+00   5.420129e-18   2.878334e+00
        Br   2.878334e+00   2.878334e+00   7.526633e-18
        Cs   0.000000e+00   0.000000e+00   0.000000e+00
        Sn   2.878334e+00   2.878334e+00   2.878334e+00
        Br   0.000000e+00   2.878334e+00   8.635002e+00
        Br   2.878334e+00   5.420129e-18   8.635002e+00
        Br   2.878334e+00   2.878334e+00   5.756668e+00
        Cs   0.000000e+00   0.000000e+00   5.756668e+00
        Sn   2.878334e+00   2.878334e+00   8.635002e+00
        Br   0.000000e+00   8.635002e+00   2.878334e+00
        Br   2.878334e+00   5.756668e+00   2.878334e+00
        Br   2.878334e+00   8.635002e+00   7.526633e-18
        Cs   0.000000e+00   5.756668e+00   0.000000e+00
        Sn   2.878334e+00   8.635002e+00   2.878334e+00
        Br   0.000000e+00   8.635002e+00   8.635002e+00
        Br   2.878334e+00   5.756668e+00   8.635002e+00
        Br   2.878334e+00   8.635002e+00   5.756668e+00
        Cs   0.000000e+00   5.756668e+00   5.756668e+00
        Sn   2.878334e+00   8.635002e+00   8.635002e+00
        Br   5.756668e+00   2.878334e+00   2.878334e+00
        Br   8.635002e+00   5.420129e-18   2.878334e+00
        Br   8.635002e+00   2.878334e+00   7.526633e-18
        Cs   5.756668e+00   0.000000e+00   0.000000e+00
        Sn   8.635002e+00   2.878334e+00   2.878334e+00
        Br   5.756668e+00   2.878334e+00   8.635002e+00
        Br   8.635002e+00   5.420129e-18   8.635002e+00
        Br   8.635002e+00   2.878334e+00   5.756668e+00
        Cs   5.756668e+00   0.000000e+00   5.756668e+00
        Sn   8.635002e+00   2.878334e+00   8.635002e+00
        Br   5.756668e+00   8.635002e+00   2.878334e+00
        Br   8.635002e+00   5.756668e+00   2.878334e+00
        Br   8.635002e+00   8.635002e+00   7.526633e-18
        Cs   5.756668e+00   5.756668e+00   0.000000e+00
        Sn   8.635002e+00   8.635002e+00   2.878334e+00
        Br   5.756668e+00   8.635002e+00   8.635002e+00
        Br   8.635002e+00   5.756668e+00   8.635002e+00
        Br   8.635002e+00   8.635002e+00   5.756668e+00
        Cs   5.756668e+00   5.756668e+00   5.756668e+00
        Sn   8.635002e+00   8.635002e+00   8.635002e+00
PRIMCOORD          2
        40         1
        Br   3.777388e-02   2.890806e+00   2.919619e+00
        Br   2.880050e+00  -2.601462e-02   2.892413e+00
        Br   2.909982e+00   2.912221e+00  -3.612506e-02
        Cs   1.973936e-02   4.637708e-02   3.023969e-02
        Sn   2.936959e+00   2.874229e+00   2.879426e+00
        Br   3.777388e-02   2.890806e+00   8.676287e+00
        Br   2.880050e+00  -2.601462e-02   8.649081e+00
        Br   2.909982e+00   2.912221e+00   5.720543e+00
        Cs   1.973936e-02   4.637708e-02   5.786908e+00
        Sn   2.936959e+00   2.874229e+00   8.636094e+00
        Br   3.777388e-02   8.647474e+00   2.919619e+00
        Br   2.880050e+00   5.730654e+00   2.892413e+00
        Br   2.909982e+00   8.668889e+00  -3.612506e-02
        Cs   1.973936e-02   5.803045e+00   3.023969e-02
        Sn   2.936959e+00   8.630897e+00   2.879426e+00
        Br   3.777388e-02   8.647474e+00   8.676287e+00
        Br   2.880050e+00   5.730654e+00   8.649081e+00
        Br   2.909982e+00   8.668889e+00   5.720543e+00
        Cs   1.973936e-02   5.803045e+00   5.786908e+00
        Sn   2.936959e+00   8.630897e+00   8.636094e+00
        Br   5.794442e+00   2.890806e+00   2.919619e+00
        Br   8.636718e+00  -2.601462e-02   2.892413e+00
        Br   8.666650e+00   2.912221e+00  -3.612506e-02
        Cs   5.776408e+00   4.637708e-02   3.023969e-02
        Sn   8.693627e+00   2.874229e+00   2.879426e+00
        Br   5.794442e+00   2.890806e+00   8.676287e+00
        Br   8.636718e+00  -2.601462e-02   8.649081e+00
        Br   8.666650e+00   2.912221e+00   5.720543e+00
        Cs   5.776408e+00   4.637708e-02   5.786908e+00
        Sn   8.693627e+00   2.874229e+00   8.636094e+00
        Br   5.794442e+00   8.647474e+00   2.919619e+00
        Br   8.636718e+00   5.730654e+00   2.892413e+00
        Br   8.666650e+00   8.668889e+00  -3.612506e-02
        Cs   5.776408e+00   5.803045e+00   3.023969e-02
        Sn   8.693627e+00   8.630897e+00   2.879426e+00
        Br   5.794442e+00   8.647474e+00   8.676287e+00
        Br   8.636718e+00   5.730654e+00   8.649081e+00
        Br   8.666650e+00   8.668889e+00   5.720543e+00
        Cs   5.776408e+00   5.803045e+00   5.786908e+00
        Sn   8.693627e+00   8.630897e+00   8.636094e+00
PRIMCOORD          3
        40         1
        Br   6.111941e-02   2.898514e+00   2.945134e+00
        Br   2.881110e+00  -4.209253e-02   2.901114e+00
        Br   2.929541e+00   2.933164e+00  -5.845157e-02
        Cs   3.193895e-02   7.503970e-02   4.892884e-02
        Sn   2.973191e+00   2.871692e+00   2.880100e+00
        Br   6.111941e-02   2.898514e+00   8.701803e+00
        Br   2.881110e+00  -4.209253e-02   8.657782e+00
        Br   2.929541e+00   2.933164e+00   5.698217e+00
        Cs   3.193895e-02   7.503970e-02   5.805597e+00
        Sn   2.973191e+00   2.871692e+00   8.636769e+00
        Br   6.111941e-02   8.655182e+00   2.945134e+00
        Br   2.881110e+00   5.714576e+00   2.901114e+00
        Br   2.929541e+00   8.689832e+00  -5.845157e-02
        Cs   3.193895e-02   5.831708e+00   4.892884e-02
        Sn   2.973191e+00   8.628360e+00   2.880100e+00
        Br   6.111941e-02   8.655182e+00   8.701803e+00
        Br   2.881110e+00   5.714576e+00   8.657782e+00
        Br   2.929541e+00   8.689832e+00   5.698217e+00
        Cs   3.193895e-02   5.831708e+00   5.805597e+00
        Sn   2.973191e+00   8.628360e+00   8.636769e+00
        Br   5.817788e+00   2.898514e+00   2.945134e+00
        Br   8.637779e+00  -4.209253e-02   2.901114e+00
        Br   8.686210e+00   2.933164e+00  -5.845157e-02
        Cs   5.788607e+00   7.503970e-02   4.892884e-02
        Sn   8.729859e+00   2.871692e+00   2.880100e+00
        Br   5.817788e+00   2.898514e+00   8.701803e+00
        Br   8.637779e+00  -4.209253e-02   8.657782e+00
        Br   8.686210e+00   2.933164e+00   5.698217e+00
        Cs   5.788607e+00   7.503970e-02   5.805597e+00
        Sn   8.729859e+00   2.871692e+00   8.636769e+00
        Br   5.817788e+00   8.655182e+00   2.945134e+00
        Br   8.637779e+00   5.714576e+00   2.901114e+00
        Br   8.686210e+00   8.689832e+00  -5.845157e-02
        Cs   5.788607e+00   5.831708e+00   4.892884e-02
        Sn   8.729859e+00   8.628360e+00   2.880100e+00
        Br   5.817788e+00   8.655182e+00   8.701803e+00
        Br   8.637779e+00   5.714576e+00   8.657782e+00
        Br   8.686210e+00   8.689832e+00   5.698217e+00
        Cs   5.788607e+00   5.831708e+00   5.805597e+00
        Sn   8.729859e+00   8.628360e+00   8.636769e+00
PRIMCOORD          4
        40         1
        Br   6.111941e-02   2.898514e+00   2.945134e+00
        Br   2.881110e+00  -4.209253e-02   2.901114e+00
        Br   2.929541e+00   2.933164e+00  -5.845157e-02
        Cs   3.193895e-02   7.503970e-02   4.892884e-02
        Sn   2.973191e+00   2.871692e+00   2.880100e+00
        Br   6.111941e-02   2.898514e+00   8.701803e+00
        Br   2.881110e+00  -4.209253e-02   8.657782e+00
        Br   2.929541e+00   2.933164e+00   5.698217e+00
        Cs   3.193895e-02   7.503970e-02   5.805597e+00
        Sn   2.973191e+00   2.871692e+00   8.636769e+00
        Br   6.111941e-02   8.655182e+00   2.945134e+00
        Br   2.881110e+00   5.714576e+00   2.901114e+00
        Br   2.929541e+00   8.689832e+00  -5.845157e-02
        Cs   3.193895e-02   5.831708e+00   4.892884e-02
        Sn   2.973191e+00   8.628360e+00   2.880100e+00
        Br   6.111941e-02   8.655182e+00   8.701803e+00
        Br   2.881110e+00   5.714576e+00   8.657782e+00
        Br   2.929541e+00   8.689832e+00   5.698217e+00
        Cs   3.193895e-02   5.831708e+00   5.805597e+00
        Sn   2.973191e+00   8.628360e+00   8.636769e+00
        Br   5.817788e+00   2.898514e+00   2.945134e+00
        Br   8.637779e+00  -4.209253e-02   2.901114e+00
        Br   8.686210e+00   2.933164e+00  -5.845157e-02
        Cs   5.788607e+00   7.503970e-02   4.892884e-02
        Sn   8.729859e+00   2.871692e+00   2.880100e+00
        Br   5.817788e+00   2.898514e+00   8.701803e+00
        Br   8.637779e+00  -4.209253e-02   8.657782e+00
        Br   8.686210e+00   2.933164e+00   5.698217e+00
        Cs   5.788607e+00   7.503970e-02   5.805597e+00
        Sn   8.729859e+00   2.871692e+00   8.636769e+00
        Br   5.817788e+00   8.655182e+00   2.945134e+00
        Br   8.637779e+00   5.714576e+00   2.901114e+00
        Br   8.686210e+00   8.689832e+00  -5.845157e-02
        Cs   5.788607e+00   5.831708e+00   4.892884e-02
        Sn   8.729859e+00   8.628360e+00   2.880100e+00
        Br   5.817788e+00   8.655182e+00   8.701803e+00
        Br   8.637779e+00   5.714576e+00   8.657782e+00
        Br   8.686210e+00   8.689832e+00   5.698217e+00
        Cs   5.788607e+00   5.831708e+00   5.805597e+00
        Sn   8.729859e+00   8.628360e+00   8.636769e+00
PRIMCOORD          5
        40         1
        Br   3.777388e-02   2.890806e+00   2.919619e+00
        Br   2.880050e+00  -2.601462e-02   2.892413e+00
        Br   2.909982e+00   2.912221e+00  -3.612506e-02
        Cs   1.973936e-02   4.637708e-02   3.023969e-02
        Sn   2.936959e+00   2.874229e+00   2.879426e+00
        Br   3.777388e-02   2.890806e+00   8.676287e+00
        Br   2.880050e+00  -2.601462e-02   8.649081e+00
        Br   2.909982e+00   2.912221e+00   5.720543e+00
        Cs   1.973936e-02   4.637708e-02   5.786908e+00
        Sn   2.936959e+00   2.874229e+00   8.636094e+00
        Br   3.777388e-02   8.647474e+00   2.919619e+00
        Br   2.880050e+00   5.730654e+00   2.892413e+00
        Br   2.909982e+00   8.668889e+00  -3.612506e-02
        Cs   1.973936e-02   5.803045e+00   3.023969e-02
        Sn   2.936959e+00   8.630897e+00   2.879426e+00
        Br   3.777388e-02   8.647474e+00   8.676287e+00
        Br   2.880050e+00   5.730654e+00   8.649081e+00
        Br   2.909982e+00   8.668889e+00   5.720543e+00
        Cs   1.973936e-02   5.803045e+00   5.786908e+00
        Sn   2.936959e+00   8.630897e+00   8.636094e+00
        Br   5.794442e+00   2.890806e+00   2.919619e+00
        Br   8.636718e+00  -2.601462e-02   2.892413e+00
        Br   8.666650e+00   2.912221e+00  -3.612506e-02
        Cs   5.776408e+00   4.637708e-02   3.023969e-02
        Sn   8.693627e+00   2.874229e+00   2.879426e+00
        Br   5.794442e+00   2.890806e+00   8.676287e+00
        Br   8.636718e+00  -2.601462e-02   8.649081e+00
        Br   8.666650e+00   2.912221e+00   5.720543e+00
        Cs   5.776408e+00   4.637708e-02   5.786908e+00
        Sn   8.693627e+00   2.874229e+00   8.636094e+00
        Br   5.794442e+00   8.647474e+00   2.919619e+00
        Br   8.636718e+00   5.730654e+00   2.892413e+00
        Br   8.666650e+00   8.668889e+00  -3.612506e-02
        Cs   5.776408e+00   5.803045e+00   3.023969e-02
        Sn   8.693627e+00   8.630897e+00   2.879426e+00
        Br   5.794442e+00   8.647474e+00   8.676287e+00
        Br   8.636718e+00   5.730654e+00   8.649081e+00
        Br   8.666650e+00   8.668889e+00   5.720543e+00
        Cs   5.776408e+00   5.803045e+00   5.786908e+00
        Sn   8.693627e+00   8.630897e+00   8.636094e+00
PRIMCOORD          6
        40         1
        Br   7.870163e-18   2.878334e+00   2.878334e+00
        Br   2.878334e+00  -1.084026e-17   2.878334e+00
        Br   2.878334e+00   2.878334e+00  -1.505327e-17
        Cs   4.112683e-18   9.662636e-18   6.300420e-18
        Sn   2.878334e+00   2.878334e+00   2.878334e+00
        Br   7.870163e-18   2.878334e+00   8.635002e+00
        Br   2.878334e+00  -1.084026e-17   8.635002e+00
        Br   2.878334e+00   2.878334e+00   5.756668e+00
        Cs   4.112683e-18   9.662636e-18   5.756668e+00
        Sn   2.878334e+00   2.878334e+00   8.635002e+00
        Br   7.870163e-18   8.635002e+00   2.878334e+00
        Br   2.878334e+00   5.756668e+00   2.878334e+00
        Br   2.878334e+00   8.635002e+00  -1.505327e-17
        Cs   4.112683e-18   5.756668e+00   6.300420e-18
        Sn   2.878334e+00   8.635002e+00   2.878334e+00
        Br   7.870163e-18   8.635002e+00   8.635002e+00
        Br   2.878334e+00   5.756668e+00   8.635002e+00
        Br   2.878334e+00   8.635002e+00   5.756668e+00
        Cs   4.112683e-18   5.756668e+00   5.756668e+00
        Sn   2.878334e+00   8.635002e+00   8.635002e+00
        Br   5.756668e+00   2.878334e+00   2.878334e+00
        Br   8.635002e+00  -1.084026e-17   2.878334e+00
        Br   8.635002e+00   2.878334e+00  -1.505327e-17
        Cs   5.756668e+00   9.662636e-18   6.300420e-18
        Sn   8.635002e+00   2.878334e+00   2.878334e+00
        Br   5.756668e+00   2.878334e+00   8.635002e+00
        Br   8.635002e+00  -1.084026e-17   8.635002e+00
        Br   8.635002e+00   2.878334e+00   5.756668e+00
        Cs   5.756668e+00   9.662636e-18   5.756668e+00
        Sn   8.635002e+00   2.878334e+00   8.635002e+00
        Br   5.756668e+00   8.635002e+00   2.878334e+00
        Br   8.635002e+00   5.756668e+00   2.878334e+00
        Br   8.635002e+00   8.635002e+00  -1.505327e-17
        Cs   5.756668e+00   5.756668e+00   6.300420e-18
        Sn   8.635002e+00   8.635002e+00   2.878334e+00
        Br   5.756668e+00   8.635002e+00   8.635002e+00
        Br   8.635002e+00   5.756668e+00   8.635002e+00
        Br   8.635002e+00   8.635002e+00   5.756668e+00
        Cs   5.756668e+00   5.756668e+00   5.756668e+00
        Sn   8.635002e+00   8.635002e+00   8.635002e+00
PRIMCOORD          7
        40         1
        Br  -3.777388e-02   2.865862e+00   2.837049e+00
        Br   2.876618e+00   2.601462e-02   2.864255e+00
        Br   2.846686e+00   2.844447e+00   3.612506e-02
        Cs  -1.973936e-02  -4.637708e-02  -3.023969e-02
        Sn   2.819709e+00   2.882439e+00   2.877243e+00
        Br  -3.777388e-02   2.865862e+00   8.593718e+00
        Br   2.876618e+00   2.601462e-02   8.620924e+00
        Br   2.846686e+00   2.844447e+00   5.792793e+00
        Cs  -1.973936e-02  -4.637708e-02   5.726429e+00
        Sn   2.819709e+00   2.882439e+00   8.633911e+00
        Br  -3.777388e-02   8.622531e+00   2.837049e+00
        Br   2.876618e+00   5.782683e+00   2.864255e+00
        Br   2.846686e+00   8.601116e+00   3.612506e-02
        Cs  -1.973936e-02   5.710291e+00  -3.023969e-02
        Sn   2.819709e+00   8.639108e+00   2.877243e+00
        Br  -3.777388e-02   8.622531e+00   8.593718e+00
        Br   2.876618e+00   5.782683e+00   8.620924e+00
        Br   2.846686e+00   8.601116e+00   5.792793e+00
        Cs  -1.973936e-02   5.710291e+00   5.726429e+00
        Sn   2.819709e+00   8.639108e+00   8.633911e+00
        Br   5.718894e+00   2.865862e+00   2.837049e+00
        Br   8.633287e+00   2.601462e-02   2.864255e+00
        Br   8.603355e+00   2.844447e+00   3.612506e-02
        Cs   5.736929e+00  -4.637708e-02  -3.023969e-02
        Sn   8.576378e+00   2.882439e+00   2.877243e+00
        Br   5.718894e+00   2.865862e+00   8.593718e+00
        Br   8.633287e+00   2.601462e-02   8.620924e+00
        Br   8.603355e+00   2.844447e+00   5.792793e+00
        Cs   5.736929e+00  -4.637708e-02   5.726429e+00
        Sn   8.576378e+00   2.882439e+00   8.633911e+00
        Br   5.718894e+00   8.622531e+00   2.837049e+00
        Br   8.633287e+00   5.782683e+00   2.864255e+00
        Br   8.603355e+00   8.601116e+00   3.612506e-02
        Cs   5.736929e+00   5.710291e+00  -3.023969e-02
        Sn   8.576378e+00   8.639108e+00   2.877243e+00
        Br   5.718894e+00   8.622531e+00   8.593718e+00
        Br   8.633287e+00   5.782683e+00   8.620924e+00
        Br   8.603355e+00   8.601116e+00   5.792793e+00
        Cs   5.736929e+00   5.710291e+00   5.726429e+00
        Sn   8.576378e+00   8.639108e+00   8.633911e+00
PRIMCOORD          8
        40         1
        Br  -6.111941e-02   2.858154e+00   2.811534e+00
        Br   2.875558e+00   4.209253e-02   2.855554e+00
        Br   2.827127e+00   2.823504e+00   5.845157e-02
        Cs  -3.193895e-02  -7.503970e-02  -4.892884e-02
        Sn   2.783477e+00   2.884976e+00   2.876568e+00
        Br  -6.111941e-02   2.858154e+00   8.568202e+00
        Br   2.875558e+00   4.209253e-02   8.612223e+00
        Br   2.827127e+00   2.823504e+00   5.815120e+00
        Cs  -3.193895e-02  -7.503970e-02   5.707739e+00
        Sn   2.783477e+00   2.884976e+00   8.633236e+00
        Br  -6.111941e-02   8.614823e+00   2.811534e+00
        Br   2.875558e+00   5.798761e+00   2.855554e+00
        Br   2.827127e+00   8.580172e+00   5.845157e-02
        Cs  -3.193895e-02   5.681629e+00  -4.892884e-02
        Sn   2.783477e+00   8.641645e+00   2.876568e+00
        Br  -6.111941e-02   8.614823e+00   8.568202e+00
        Br   2.875558e+00   5.798761e+00   8.612223e+00
        Br   2.827127e+00   8.580172e+00   5.815120e+00
        Cs  -3.193895e-02   5.681629e+00   5.707739e+00
        Sn   2.783477e+00   8.641645e+00   8.633236e+00
        Br   5.695549e+00   2.858154e+00   2.811534e+00
        Br   8.632226e+00   4.209253e-02   2.855554e+00
        Br   8.583795e+00   2.823504e+00   5.845157e-02
        Cs   5.724729e+00  -7.503970e-02  -4.892884e-02
        Sn   8.540145e+00   2.884976e+00   2.876568e+00
        Br   5.695549e+00   2.858154e+00   8.568202e+00
        Br   8.632226e+00   4.209253e-02   8.612223e+00
        Br   8.583795e+00   2.823504e+00   5.815120e+00
        Cs   5.724729e+00  -7.503970e-02   5.707739e+00
        Sn   8.540145e+00   2.884976e+00   8.633236e+00
        Br   5.695549e+00   8.614823e+00   2.811534e+00
        Br   8.632226e+00   5.798761e+00   2.855554e+00
        Br   8.583795e+00   8.580172e+00   5.845157e-02
        Cs   5.724729e+00   5.681629e+00  -4.892884e-02
        Sn   8.540145e+00   8.641645e+00   2.876568e+00
        Br   5.695549e+00   8.614823e+00   8.568202e+00
        Br   8.632226e+00   5.798761e+00   8.612223e+00
        Br   8.583795e+00   8.580172e+00   5.815120e+00
        Cs   5.724729e+00   5.681629e+00   5.707739e+00
        Sn   8.540145e+00   8.641645e+00   8.633236e+00
PRIMCOORD          9
        40         1
        Br  -6.111941e-02   2.858154e+00   2.811534e+00
        Br   2.875558e+00   4.209253e-02   2.855554e+00
        Br   2.827127e+00   2.823504e+00   5.845157e-02
        Cs  -3.193895e-02  -7.503970e-02  -4.892884e-02
        Sn   2.783477e+00   2.884976e+00   2.876568e+00
        Br  -6.111941e-02   2.858154e+00   8.568202e+00
        Br   2.875558e+00   4.209253e-02   8.612223e+00
        Br   2.827127e+00   2.823504e+00   5.815120e+00
        Cs  -3.193895e-02  -7.503970e-02   5.707739e+00
        Sn   2.783477e+00   2.884976e+00   8.633236e+00
        Br  -6.111941e-02   8.614823e+00   2.811534e+00
        Br   2.875558e+00   5.798761e+00   2.855554e+00
        Br   2.827127e+00   8.580172e+00   5.845157e-02
        Cs  -3.193895e-02   5.681629e+00  -4.892884e-02
        Sn   2.783477e+00   8.641645e+00   2.876568e+00
        Br  -6.111941e-02   8.614823e+00   8.568202e+00
        Br   2.875558e+00   5.798761e+00   8.612223e+00
        Br   2.827127e+00   8.580172e+00   5.815120e+00
        Cs  -3.193895e-02   5.681629e+00   5.707739e+00
        Sn   2.783477e+00   8.641645e+00   8.633236e+00
        Br   5.695549e+00   2.858154e+00   2.811534e+00
        Br   8.632226e+00   4.209253e-02   2.855554e+00
        Br   8.583795e+00   2.823504e+00   5.845157e-02
        Cs   5.724729e+00  -7.503970e-02  -4.892884e-02
        Sn   8.540145e+00   2.884976e+00   2.876568e+00
        Br   5.695549e+00   2.858154e+00   8.568202e+00
        Br   8.632226e+00   4.209253e-02   8.612223e+00
        Br   8.583795e+00   2.823504e+00   5.815120e+00
        Cs   5.724729e+00  -7.503970e-02   5.707739e+00
        Sn   8.540145e+00   2.884976e+00   8.633236e+00
        Br   5.695549e+00   8.614823e+00   2.811534e+00
        Br   8.632226e+00   5.798761e+00   2.855554e+00
        Br   8.583795e+00   8.580172e+00   5.845157e-02
        Cs   5.724729e+00   5.681629e+00  -4.892884e-02
        Sn   8.540145e+00   8.641645e+00   2.876568e+00
        Br   5.695549e+00   8.614823e+00   8.568202e+00
        Br   8.632226e+00   5.798761e+00   8.612223e+00
        Br   8.583795e+00   8.580172e+00   5.815120e+00
        Cs   5.724729e+00   5.681629e+00   5.707739e+00
        Sn   8.540145e+00   8.641645e+00   8.633236e+00
PRIMCOORD         10
        40         1
        Br  -3.777388e-02   2.865862e+00   2.837049e+00
        Br   2.876618e+00   2.601462e-02   2.864255e+00
        Br   2.846686e+00   2.844447e+00   3.612506e-02
        Cs  -1.973936e-02  -4.637708e-02  -3.023969e-02
        Sn   2.819709e+00   2.882439e+00   2.877243e+00
        Br  -3.777388e-02   2.865862e+00   8.593718e+00
        Br   2.876618e+00   2.601462e-02   8.620924e+00
        Br   2.846686e+00   2.844447e+00   5.792793e+00
        Cs  -1.973936e-02  -4.637708e-02   5.726429e+00
        Sn   2.819709e+00   2.882439e+00   8.633911e+00
        Br  -3.777388e-02   8.622531e+00   2.837049e+00
        Br   2.876618e+00   5.782683e+00   2.864255e+00
        Br   2.846686e+00   8.601116e+00   3.612506e-02
        Cs  -1.973936e-02   5.710291e+00  -3.023969e-02
        Sn   2.819709e+00   8.639108e+00   2.877243e+00
        Br  -3.777388e-02   8.622531e+00   8.593718e+00
        Br   2.876618e+00   5.782683e+00   8.620924e+00
        Br   2.846686e+00   8.601116e+00   5.792793e+00
        Cs  -1.973936e-02   5.710291e+00   5.726429e+00
        Sn   2.819709e+00   8.639108e+00   8.633911e+00
        Br   5.718894e+00   2.865862e+00   2.837049e+00
        Br   8.633287e+00   2.601462e-02   2.864255e+00
        Br   8.603355e+00   2.844447e+00   3.612506e-02
        Cs   5.736929e+00  -4.637708e-02  -3.023969e-02
        Sn   8.576378e+00   2.882439e+00   2.877243e+00
        Br   5.718894e+00   2.865862e+00   8.593718e+00
        Br   8.633287e+00   2.601462e-02   8.620924e+00
        Br   8.603355e+00   2.844447e+00   5.792793e+00
        Cs   5.736929e+00  -4.637708e-02   5.726429e+00
        Sn   8.576378e+00   2.882439e+00   8.633911e+00
        Br   5.718894e+00   8.622531e+00   2.837049e+00
        Br   8.633287e+00   5.782683e+00   2.864255e+00
        Br   8.603355e+00   8.601116e+00   3.612506e-02
        Cs   5.736929e+00   5.710291e+00  -3.023969e-02
        Sn   8.576378e+00   8.639108e+00   2.877243e+00
        Br   5.718894e+00   8.622531e+00   8.593718e+00
        Br   8.633287e+00   5.782683e+00   8.620924e+00
        Br   8.603355e+00   8.601116e+00   5.792793e+00
        Cs   5.736929e+00   5.710291e+00   5.726429e+00
        Sn   8.576378e+00   8.639108e+00   8.633911e+00
PRIMCOORD         11
        40         1
        Br  -1.574033e-17   2.878334e+00   2.878334e+00
        Br   2.878334e+00   1.626039e-17   2.878334e+00
        Br   2.878334e+00   2.878334e+00   2.257990e-17
        Cs  -8.225366e-18  -1.932527e-17  -1.260084e-17
        Sn   2.878334e+00   2.878334e+00   2.878334e+00
        Br  -1.574033e-17   2.878334e+00   8.635002e+00
        Br   2.878334e+00   1.626039e-17   8.635002e+00
        Br   2.878334e+00   2.878334e+00   5.756668e+00
        Cs  -8.225366e-18  -1.932527e-17   5.756668e+00
        Sn   2.878334e+00   2.878334e+00   8.635002e+00
        Br  -1.574033e-17   8.635002e+00   2.878334e+00
        Br   2.878334e+00   5.756668e+00   2.878334e+00
        Br   2.878334e+00   8.635002e+00   2.257990e-17
        Cs  -8.225366e-18   5.756668e+00  -1.260084e-17
        Sn   2.878334e+00   8.635002e+00   2.878334e+00
        Br  -1.574033e-17   8.635002e+00   8.635002e+00
        Br   2.878334e+00   5.756668e+00   8.635002e+00
        Br   2.878334e+00   8.635002e+00   5.756668e+00
        Cs  -8.225366e-18   5.756668e+00   5.756668e+00
        Sn   2.878334e+00   8.635002e+00   8.635002e+00
        Br   5.756668e+00   2.878334e+00   2.878334e+00
        Br   8.635002e+00   1.626039e-17   2.878334e+00
        Br   8.635002e+00   2.878334e+00   2.257990e-17
        Cs   5.756668e+00  -1.932527e-17  -1.260084e-17
        Sn   8.635002e+00   2.878334e+00   2.878334e+00
        Br   5.756668e+00   2.878334e+00   8.635002e+00
        Br   8.635002e+00   1.626039e-17   8.635002e+00
        Br   8.635002e+00   2.878334e+00   5.756668e+00
        Cs   5.756668e+00  -1.932527e-17   5.756668e+00
        Sn   8.635002e+00   2.878334e+00   8.635002e+00
        Br   5.756668e+00   8.635002e+00   2.878334e+00
        Br   8.635002e+00   5.756668e+00   2.878334e+00
        Br   8.635002e+00   8.635002e+00   2.257990e-17
        Cs   5.756668e+00   5.756668e+00  -1.260084e-17
        Sn   8.635002e+00   8.635002e+00   2.878334e+00
        Br   5.756668e+00   8.635002e+00   8.635002e+00
        Br   8.635002e+00   5.756668e+00   8.635002e+00
        Br   8.635002e+00   8.635002e+00   5.756668e+00
        Cs   5.756668e+00   5.756668e+00   5.756668e+00
        Sn   8.635002e+00   8.635002e+00   8.635002e+00
PRIMCOORD         12
        40         1
        Br   3.777388e-02   2.890806e+00   2.919619e+00
        Br   2.880050e+00  -2.601462e-02   2.892413e+00
        Br   2.909982e+00   2.912221e+00  -3.612506e-02
        Cs   1.973936e-02   4.637708e-02   3.023969e-02
        Sn   2.936959e+00   2.874229e+00   2.879426e+00
        Br   3.777388e-02   2.890806e+00   8.676287e+00
        Br   2.880050e+00  -2.601462e-02   8.649081e+00
        Br   2.909982e+00   2.912221e+00   5.720543e+00
        Cs   1.973936e-02   4.637708e-02   5.786908e+00
        Sn   2.936959e+00   2.874229e+00   8.636094e+00
        Br   3.777388e-02   8.647474e+00   2.919619e+00
        Br   2.880050e+00   5.730654e+00   2.892413e+00
        Br   2.909982e+00   8.668889e+00  -3.612506e-02
        Cs   1.973936e-02   5.803045e+00   3.023969e-02
        Sn   2.936959e+00   8.630897e+00   2.879426e+00
        Br   3.777388e-02   8.647474e+00   8.676287e+00
        Br   2.880050e+00   5.730654e+00   8.649081e+00
        Br   2.909982e+00   8.668889e+00   5.720543e+00
        Cs   1.973936e-02   5.803045e+00   5.786908e+00
        Sn   2.936959e+00   8.630897e+00   8.636094e+00
        Br   5.794442e+00   2.890806e+00   2.919619e+00
        Br   8.636718e+00  -2.601462e-02   2.892413e+00
        Br   8.666650e+00   2.912221e+00  -3.612506e-02
        Cs   5.776408e+00   4.637708e-02   3.023969e-02
        Sn   8.693627e+00   2.874229e+00   2.879426e+00
        Br   5.794442e+00   2.890806e+00   8.676287e+00
        Br   8.636718e+00  -2.601462e-02   8.649081e+00
        Br   8.666650e+00   2.912221e+00   5.720543e+00
        Cs   5.776408e+00   4.637708e-02   5.786908e+00
        Sn   8.693627e+00   2.874229e+00   8.636094e+00
        Br   5.794442e+00   8.647474e+00   2.919619e+00
        Br   8.636718e+00   5.730654e+00   2.892413e+00
        Br   8.666650e+00   8.668889e+00  -3.612506e-02
        Cs   5.776408e+00   5.803045e+00   3.023969e-02
        Sn   8.693627e+00   8.630897e+00   2.879426e+00
        Br   5.794442e+00   8.647474e+00   8.676287e+00
        Br   8.636718e+00   5.730654e+00   8.649081e+00
        Br   8.666650e+00   8.668889e+00   5.720543e+00
        Cs   5.776408e+00   5.803045e+00   5.786908e+00
        Sn   8.693627e+00   8.630897e+00   8.636094e+00
PRIMCOORD         13
        40         1
        Br   6.111941e-02   2.898514e+00   2.945134e+00
        Br   2.881110e+00  -4.209253e-02   2.901114e+00
        Br   2.929541e+00   2.933164e+00  -5.845157e-02
        Cs   3.193895e-02   7.503970e-02   4.892884e-02
        Sn   2.973191e+00   2.871692e+00   2.880100e+00
        Br   6.111941e-02   2.898514e+00   8.701803e+00
        Br   2.881110e+00  -4.209253e-02   8.657782e+00
        Br   2.929541e+00   2.933164e+00   5.698217e+00
        Cs   3.193895e-02   7.503970e-02   5.805597e+00
        Sn   2.973191e+00   2.871692e+00   8.636769e+00
        Br   6.111941e-02   8.655182e+00   2.945134e+00
        Br   2.881110e+00   5.714576e+00   2.901114e+00
        Br   2.929541e+00   8.689832e+00  -5.845157e-02
        Cs   3.193895e-02   5.831708e+00   4.892884e-02
        Sn   2.973191e+00   8.628360e+00   2.880100e+00
        Br   6.111941e-02   8.655182e+00   8.701803e+00
        Br   2.881110e+00   5.714576e+00   8.657782e+00
        Br   2.929541e+00   8.689832e+00   5.698217e+00
        Cs   3.193895e-02   5.831708e+00   5.805597e+00
        Sn   2.973191e+00   8.628360e+00   8.636769e+00
        Br   5.817788e+00   2.898514e+00   2.945134e+00
        Br   8.637779e+00  -4.209253e-02   2.901114e+00
        Br   8.686210e+00   2.933164e+00  -5.845157e-02
        Cs   5.788607e+00   7.503970e-02   4.892884e-02
        Sn   8.729859e+00   2.871692e+00   2.880100e+00
        Br   5.817788e+00   2.898514e+00   8.701803e+00
        Br   8.637779e+00  -4.209253e-02   8.657782e+00
        Br   8.686210e+00   2.933164e+00   5.698217e+00
        Cs   5.788607e+00   7.503970e-02   5.805597e+00
        Sn   8.729859e+00   2.871692e+00   8.636769e+00
        Br   5.817788e+00   8.655182e+00   2.945134e+00
        Br   8.637779e+00   5.714576e+00   2.901114e+00
        Br   8.686210e+00   8.689832e+00  -5.845157e-02
        Cs   5.788607e+00   5.831708e+00   4.892884e-02
        Sn   8.729859e+00   8.628360e+00   2.880100e+00
        Br   5.817788e+00   8.655182e+00   8.701803e+00
        Br   8.637779e+00   5.714576e+00   8.657782e+00
        Br   8.686210e+00   8.689832e+00   5.698217e+00
        Cs   5.788607e+00   5.831708e+00   5.805597e+00
        Sn   8.729859e+00   8.628360e+00   8.636769e+00
PRIMCOORD         14
        40         1