ANIMSTEPS 3750
CRYSTAL
PRIMVEC
   5.756668e+00   0.000000e+00  -0.000000e+00
  -0.000000e+00   5.756668e+00  -0.000000e+00
  -0.000000e+00   0.000000e+00   5.756668e+00
PRIMCOORD          1
         5         1
        Br   0.000000e+00   2.878334e+00   2.878334e+00  -6.027960e-06   9.841185e-06  -7.365608e-05
        Br   2.878334e+00   0.000000e+00   2.878334e+00  -6.003839e-06   9.841185e-06  -7.365608e-05
        Br   2.878334e+00   2.878334e+00   0.000000e+00  -6.003839e-06   9.841185e-06  -7.406134e-05
        Cs   0.000000e+00   0.000000e+00   0.000000e+00  -6.010616e-06   9.841185e-06  -7.376994e-05
        Sn   2.878334e+00   2.878334e+00   2.878334e+00  -6.020648e-06   9.841185e-06  -7.393850e-05
PRIMCOORD          2
         5         1
        Br   0.000000e+00   2.878334e+00   2.878334e+00   1.875652e-05   7.188684e-05   8.043382e-06
        Br   2.878334e+00   0.000000e+00   2.878334e+00   1.867088e-05   7.188684e-05   8.043382e-06
        Br   2.878334e+00   2.878334e+00   0.000000e+00   1.867088e-05   7.188684e-05   8.082945e-06
        Cs   0.000000e+00   0.000000e+00   0.000000e+00   1.869494e-05   7.188684e-05   8.054498e-06
        Sn   2.878334e+00   2.878334e+00   2.878334e+00   1.873056e-05   7.188684e-05   8.070953e-06
PRIMCOORD          3
         5         1
        Br   0.000000e+00   2.878334e+00   2.878334e+00   7.229730e-05  -1.783289e-05  -8.228683e-06
        Br   2.878334e+00   0.000000e+00   2.878334e+00   7.194215e-05  -1.783289e-05  -8.228683e-06
        Br   2.878334e+00   2.878334e+00   0.000000e+00   7.194215e-05  -1.783289e-05  -8.280270e-06
        Cs   0.000000e+00   0.000000e+00   0.000000e+00   7.204193e-05  -1.783289e-05  -8.243177e-06
        Sn   2.878334e+00   2.878334e+00   2.878334e+00   7.218965e-05  -1.783289e-05  -8.264633e-06
PRIMCOORD          4
         5         1
        Br   0.000000e+00   2.878334e+00   2.878334e+00   1.007791e-05  -9.296983e-10   8.242144e-05
        Br   2.878334e+00   0.000000e+00   2.878334e+00  -6.940556e-06  -9.296983e-10   8.242144e-05
        Br   2.878334e+00   2.878334e+00   0.000000e+00  -6.940556e-06  -9.296983e-10  -1.197158e-04
        Cs   0.000000e+00   0.000000e+00   0.000000e+00  -2.159028e-06  -9.296983e-10   2.562876e-05
        Sn   2.878334e+00   2.878334e+00   2.878334e+00   4.919405e-06  -9.296983e-10  -5.844546e-05
PRIMCOORD          5
         5         1
        Br   0.000000e+00   2.878334e+00   2.878334e+00  -1.197325e-04  -2.129179e-09   6.937018e-06
        Br   2.878334e+00   0.000000e+00   2.878334e+00   8.240479e-05  -2.129179e-09   6.937018e-06
        Br   2.878334e+00   2.878334e+00   0.000000e+00   8.240479e-05  -2.129179e-09  -1.008147e-05
        Cs   0.000000e+00   0.000000e+00   0.000000e+00   2.561208e-05  -2.129179e-09   2.155485e-06
        Sn   2.878334e+00   2.878334e+00   2.878334e+00  -5.846217e-05  -2.129179e-09  -4.922955e-06
PRIMCOORD          6
         5         1
        Br   0.000000e+00   2.878334e+00   2.878334e+00   8.752085e-19  -9.155068e-05  -3.597070e-19
        Br   2.878334e+00   0.000000e+00   2.878334e+00  -2.747172e-19   9.531228e-05  -3.248304e-19
        Br   2.878334e+00   2.878334e+00   0.000000e+00  -3.410690e-19  -9.155068e-05   1.144025e-18
        Cs   0.000000e+00   0.000000e+00   0.000000e+00   5.924615e-20  -1.348630e-05   1.218869e-19
        Sn   2.878334e+00   2.878334e+00   2.878334e+00   5.651016e-19   7.419057e-05   7.488779e-19
PRIMCOORD          7
         5         1
        Br   0.000000e+00   2.878334e+00   2.878334e+00   3.224149e-21  -1.303935e-04   1.256024e-05
        Br   2.878334e+00   0.000000e+00   2.878334e+00  -1.865806e-06   6.823782e-20  -1.256024e-05
        Br   2.878334e+00   2.878334e+00   0.000000e+00   1.865806e-06   1.303935e-04  -4.321264e-21
        Cs   0.000000e+00   0.000000e+00   0.000000e+00   1.152829e-19  -6.592769e-19  -2.012507e-19
        Sn   2.878334e+00   2.878334e+00   2.878334e+00   9.894262e-21   2.609871e-19   1.230164e-23
PRIMCOORD          8
         5         1
        Br   0.000000e+00   2.878334e+00   2.878334e+00  -3.340363e-19  -1.250041e-05  -1.303539e-04
        Br   2.878334e+00   0.000000e+00   2.878334e+00  -3.913993e-06  -1.222899e-19   1.303539e-04
        Br   2.878334e+00   2.878334e+00   0.000000e+00   3.913993e-06   1.250041e-05   3.253036e-19
        Cs   0.000000e+00   0.000000e+00   0.000000e+00   1.655830e-18   5.728285e-19  -1.661698e-18
        Sn   2.878334e+00   2.878334e+00   2.878334e+00  -3.776728e-19  -2.987657e-19   3.216317e-19
PRIMCOORD          9
         5         1
        Br   0.000000e+00   2.878334e+00   2.878334e+00  -1.311804e-19  -2.231700e-06  -3.717539e-06
        Br   2.878334e+00   0.000000e+00   2.878334e+00   1.309386e-04  -5.174958e-20   3.717539e-06
        Br   2.878334e+00   2.878334e+00   0.000000e+00  -1.309386e-04   2.231700e-06  -3.277533e-19
        Cs   0.000000e+00   0.000000e+00   0.000000e+00   5.655945e-19   1.383361e-19   1.676846e-18
        Sn   2.878334e+00   2.878334e+00   2.878334e+00  -1.618261e-19  -9.178026e-20  -3.883037e-19
PRIMCOORD         10
         5         1
        Br   0.000000e+00   2.878334e+00   2.878334e+00  -7.414218e-07   5.266089e-19   6.488800e-05
        Br   2.878334e+00   0.000000e+00   2.878334e+00  -1.944900e-06   8.486592e-20   6.488800e-05
        Br   2.878334e+00   2.878334e+00   0.000000e+00  -1.944900e-06  -1.943374e-19   2.473617e-05
        Cs   0.000000e+00   0.000000e+00   0.000000e+00   3.593344e-06  -3.480981e-19  -1.198853e-04
        Sn   2.878334e+00   2.878334e+00   2.878334e+00  -9.058897e-07   1.942138e-19   3.022333e-05
PRIMCOORD         11
         5         1
        Br   0.000000e+00   2.878334e+00   2.878334e+00   2.473617e-05  -2.459954e-19   1.944900e-06
        Br   2.878334e+00   0.000000e+00   2.878334e+00   6.488800e-05   8.030989e-21   1.944900e-06
        Br   2.878334e+00   2.878334e+00   0.000000e+00   6.488800e-05   3.132932e-19   7.414218e-07
        Cs   0.000000e+00   0.000000e+00   0.000000e+00  -1.198853e-04  -8.962338e-20  -3.593344e-06
        Sn   2.878334e+00   2.878334e+00   2.878334e+00   3.022333e-05   4.065468e-20   9.058897e-07
PRIMCOORD         12
         5         1
        Br   0.000000e+00   2.878334e+00   2.878334e+00   2.036035e-20   5.418467e-05  -9.799846e-19
        Br   2.878334e+00   0.000000e+00   2.878334e+00   1.108937e-19   1.627888e-05   4.816811e-19
        Br   2.878334e+00   2.878334e+00   0.000000e+00  -2.061666e-19   5.418467e-05  -4.792745e-20
        Cs   0.000000e+00   0.000000e+00   0.000000e+00   6.249599e-20  -1.208004e-04   3.422733e-19
        Sn   2.878334e+00   2.878334e+00   2.878334e+00  -2.347650e-20   5.134945e-05  -8.259378e-20
PRIMCOORD         13
         5         1
        Br   0.000000e+00   2.878334e+00   2.878334e+00   1.161274e-04  -3.388650e-20  -2.670025e-06
        Br   2.878334e+00   0.000000e+00   2.878334e+00   2.330907e-05   1.998073e-20  -2.670025e-06
        Br   2.878334e+00   2.878334e+00   0.000000e+00   2.330907e-05   2.745518e-21  -1.330226e-05
        Cs   0.000000e+00   0.000000e+00   0.000000e+00   3.920085e-06   2.174193e-20  -4.490409e-07
        Sn   2.878334e+00   2.878334e+00   2.878334e+00  -1.139335e-04   2.075167e-20   1.305094e-05
PRIMCOORD         14
         5         1
        Br   0.000000e+00   2.878334e+00   2.878334e+00  -1.330226e-05   1.812174e-21  -2.330907e-05
        Br   2.878334e+00   0.000000e+00   2.878334e+00  -2.670025e-06  -3.198531e-20  -2.330907e-05
        Br   2.878334e+00   2.878334e+00   0.000000e+00  -2.670025e-06   3.797025e-20  -1.161274e-04
        Cs   0.000000e+00   0.000000e+00   0.000000e+00  -4.490409e-07   7.560462e-23  -3.920085e-06
        Sn   2.878334e+00   2.878334e+00   2.878334e+00   1.305094e-05  -3.714982e-20   1.139335e-04
PRIMCOORD         15
         5         1
        Br   0.000000e+00   2.878334e+00   2.878334e+00  -1.471228e-20  -1.623681e-05  -1.900158e-21
        Br   2.878334e+00   0.000000e+00   2.878334e+00   6.717633e-21  -1.392675e-04   7.830338e-21
        Br   2.878334e+00   2.878334e+00   0.000000e+00   1.786463e-22  -1.623681e-05  -1.333075e-21
        Cs   0.000000e+00   0.000000e+00   0.000000e+00   5.788651e-22   1.673523e-05   6.955210e-21
        Sn   2.878334e+00   2.878334e+00   2.878334e+00  -4.605211e-21   9.686227e-05   1.840435e-22
PRIMCOORD         16
         5         1
        Br   0.000000e+00   2.878334e+00   2.878334e+00  -4.762877e-06   5.220913e-18  -7.878762e-05
        Br   2.878334e+00   0.000000e+00   2.878334e+00  -5.504542e-06   5.529361e-18  -7.869523e-05
        Br   2.878334e+00   2.878334e+00   0.000000e+00  -5.509714e-06   5.154228e-18  -6.810802e-05
        Cs   0.000000e+00   0.000000e+00   0.000000e+00  -5.298530e-06   5.407908e-18  -7.575001e-05
        Sn   2.878334e+00   2.878334e+00   2.878334e+00  -4.988703e-06   5.468471e-18  -7.133730e-05
PRIMCOORD         17
         5         1
        Br   0.000000e+00   2.878334e+00   2.878334e+00   6.810621e-05   7.058357e-18  -5.509861e-06
        Br   2.878334e+00   0.000000e+00   2.878334e+00   7.871156e-05   6.449440e-18  -5.503399e-06
        Br   2.878334e+00   2.878334e+00   0.000000e+00   7.878552e-05   7.036362e-18  -4.763004e-06
        Cs   0.000000e+00   0.000000e+00   0.000000e+00   7.576573e-05   6.852607e-18  -5.297431e-06
        Sn   2.878334e+00   2.878334e+00   2.878334e+00   7.133539e-05   6.499920e-18  -4.988836e-06
PRIMCOORD         18
         5         1
        Br   0.000000e+00   2.878334e+00   2.878334e+00  -3.053174e-05  -3.032456e-18  -7.605976e-05
        Br   2.878334e+00   0.000000e+00   2.878334e+00   1.931693e-05  -3.889085e-18  -7.606863e-05
        Br   2.878334e+00   2.878334e+00   0.000000e+00   1.931484e-05  -2.913843e-18   1.202307e-04
        Cs   0.000000e+00   0.000000e+00   0.000000e+00   5.320790e-06  -3.302936e-18  -2.095288e-05
        Sn   2.878334e+00   2.878334e+00   2.878334e+00  -1.542851e-05  -3.801139e-18   6.075580e-05
PRIMCOORD         19
         5         1
        Br   0.000000e+00   2.878334e+00   2.878334e+00   1.202307e-04  -6.064977e-18  -1.931484e-05
        Br   2.878334e+00   0.000000e+00   2.878334e+00  -7.606800e-05  -7.207699e-18  -1.931709e-05
        Br   2.878334e+00   2.878334e+00   0.000000e+00  -7.605975e-05  -6.099217e-18   3.053174e-05
        Cs   0.000000e+00   0.000000e+00   0.000000e+00  -2.095270e-05  -6.568008e-18  -5.320835e-06
        Sn   2.878334e+00   2.878334e+00   2.878334e+00   6.075580e-05  -7.050427e-18   1.542851e-05
PRIMCOORD         20
         5         1
        Br   0.000000e+00   2.878334e+00   2.878334e+00   3.503689e-18   7.633162e-05   8.164877e-19
        Br   2.878334e+00   0.000000e+00   2.878334e+00  -1.260131e-17   7.253690e-05   9.892566e-19
        Br   2.878334e+00   2.878334e+00   0.000000e+00  -1.264971e-17   7.633162e-05   1.354831e-17
        Cs   0.000000e+00   0.000000e+00   0.000000e+00  -8.024353e-18   7.480002e-05   4.500225e-18
        Sn   2.878334e+00   2.878334e+00   2.878334e+00  -1.362460e-18   7.310849e-05   9.732589e-18
PRIMCOORD         21
         5         1
        Br   0.000000e+00   2.878334e+00   2.878334e+00   8.156611e-19  -9.012472e-05  -4.265110e-19
        Br   2.878334e+00   0.000000e+00   2.878334e+00  -3.483080e-19   9.661460e-05  -3.468226e-19
        Br   2.878334e+00   2.878334e+00   0.000000e+00  -3.890103e-19  -9.012472e-05   1.111246e-18
        Cs   0.000000e+00   0.000000e+00   0.000000e+00   5.686026e-20  -1.186714e-05   9.700594e-20
        Sn   2.878334e+00   2.878334e+00   2.878334e+00   4.929219e-19   7.558043e-05   7.075772e-19
PRIMCOORD         22
         5         1
        Br   0.000000e+00   2.878334e+00   2.878334e+00   1.082210e-19   1.299988e-04   5.482795e-17
        Br   2.878334e+00   0.000000e+00   2.878334e+00  -2.824371e-17  -1.495645e-19  -5.462196e-17
        Br   2.878334e+00   2.878334e+00   0.000000e+00   2.901176e-17  -1.299988e-04   3.833926e-20
        Cs   0.000000e+00   0.000000e+00   0.000000e+00  -6.533939e-19   9.260142e-19  -1.965932e-20
        Sn   2.878334e+00   2.878334e+00   2.878334e+00   1.255197e-19  -4.108555e-19   5.544995e-20
PRIMCOORD         23
         5         1
        Br   0.000000e+00   2.878334e+00   2.878334e+00   4.068022e-10  -5.465273e-17   1.315697e-04
        Br   2.878334e+00   0.000000e+00   2.878334e+00  -2.881626e-07   2.273987e-19  -1.303735e-04
        Br   2.878334e+00   2.878334e+00   0.000000e+00   2.909308e-07   5.569461e-17   1.839710e-07
        Cs   0.000000e+00   0.000000e+00   0.000000e+00  -2.325219e-09  -1.006023e-18  -1.052000e-06
        Sn   2.878334e+00   2.878334e+00   2.878334e+00   5.095676e-10   5.416739e-19   2.304453e-07
PRIMCOORD         24
         5         1
        Br   0.000000e+00   2.878334e+00   2.878334e+00  -1.839547e-07   2.841661e-17   2.909567e-07
        Br   2.878334e+00   0.000000e+00   2.878334e+00   1.303062e-04  -2.423355e-20  -2.883115e-07
        Br   2.878334e+00   2.878334e+00   0.000000e+00  -1.315580e-04  -2.831518e-17   4.068384e-10
        Cs   0.000000e+00   0.000000e+00   0.000000e+00   1.051457e-06  -1.001563e-19  -2.326420e-09
        Sn   2.878334e+00   2.878334e+00   2.878334e+00  -2.304248e-07  -2.829687e-21   5.096129e-10
PRIMCOORD         25
         5         1
        Br   0.000000e+00   2.878334e+00   2.878334e+00   1.681128e-06  -6.427122e-19  -6.365893e-05
        Br   2.878334e+00   0.000000e+00   2.878334e+00   4.493688e-06  -9.078202e-20  -6.589587e-05
        Br   2.878334e+00   2.878334e+00   0.000000e+00   4.338775e-06   3.330320e-19  -2.466568e-05
        Cs   0.000000e+00   0.000000e+00   0.000000e+00  -8.154654e-06   3.453607e-19   1.195806e-04
        Sn   2.878334e+00   2.878334e+00   2.878334e+00   2.055453e-06  -2.082618e-19  -3.015781e-05
PRIMCOORD         26
         5         1
        Br   0.000000e+00   2.878334e+00   2.878334e+00   2.466211e-05  -4.163545e-19   4.339403e-06
        Br   2.878334e+00   0.000000e+00   2.878334e+00   6.592228e-05   9.588390e-20   4.491887e-06
        Br   2.878334e+00   2.878334e+00   0.000000e+00   6.364972e-05   4.463580e-19   1.681372e-06
        Cs   0.000000e+00   0.000000e+00   0.000000e+00  -1.196286e-04  -7.540535e-20  -8.151387e-06
        Sn   2.878334e+00   2.878334e+00   2.878334e+00   3.015345e-05   1.355253e-19   2.055751e-06
PRIMCOORD         27
         5         1
        Br   0.000000e+00   2.878334e+00   2.878334e+00   4.596939e-21   5.407728e-05  -1.409872e-18
        Br   2.878334e+00   0.000000e+00   2.878334e+00  -5.789724e-20   1.645381e-05   8.969998e-19
        Br   2.878334e+00   2.878334e+00   0.000000e+00   6.573475e-20   5.407728e-05  -6.249032e-20
        Cs   0.000000e+00   0.000000e+00   0.000000e+00   9.845809e-20  -1.207226e-04   3.371053e-19
        Sn   2.878334e+00   2.878334e+00   2.878334e+00  -1.644916e-20   5.143354e-05  -1.186871e-19
PRIMCOORD         28
         5         1
        Br   0.000000e+00   2.878334e+00   2.878334e+00   1.167797e-04  -2.850579e-20  -1.092239e-06
        Br   2.878334e+00   0.000000e+00   2.878334e+00   2.341836e-05   4.634820e-20  -1.092326e-06
        Br   2.878334e+00   2.878334e+00   0.000000e+00   2.341570e-05   4.520092e-21  -5.447257e-06
        Cs   0.000000e+00   0.000000e+00   0.000000e+00   3.936223e-06   3.245423e-20  -1.836012e-07
        Sn   2.878334e+00   2.878334e+00   2.878334e+00  -1.145441e-04   4.914907e-20   5.342977e-06
PRIMCOORD         29
         5         1
        Br   0.000000e+00   2.878334e+00   2.878334e+00  -5.447254e-06   4.783983e-21  -2.341571e-05
        Br   2.878334e+00   0.000000e+00   2.878334e+00  -1.092363e-06  -1.921525e-20  -2.341757e-05
        Br   2.878334e+00   2.878334e+00   0.000000e+00  -1.092238e-06   4.857543e-20  -1.167797e-04
        Cs   0.000000e+00   0.000000e+00   0.000000e+00  -1.836074e-07  -9.811929e-21  -3.936091e-06
        Sn   2.878334e+00   2.878334e+00   2.878334e+00   5.342974e-06  -3.708546e-20   1.145441e-04
PRIMCOORD         30
         5         1
        Br   0.000000e+00   2.878334e+00   2.878334e+00  -1.893413e-20  -1.622833e-05  -5.761283e-21
        Br   2.878334e+00   0.000000e+00   2.878334e+00   6.567528e-21  -1.390091e-04   1.234642e-20
        Br   2.878334e+00   2.878334e+00   0.000000e+00   4.822981e-22  -1.622833e-05  -9.051528e-21
        Cs   0.000000e+00   0.000000e+00   0.000000e+00  -4.022884e-20   1.669411e-05   2.310589e-21
        Sn   2.878334e+00   2.878334e+00   2.878334e+00   2.764366e-21   9.679959e-05   7.162068e-22
PRIMCOORD         31
         5         1
        Br   0.000000e+00   2.878334e+00   2.878334e+00   3.774996e-05  -5.064509e-19   6.580697e-05
        Br   2.878334e+00   0.000000e+00   2.878334e+00   4.364105e-05  -1.139559e-18   6.549901e-05
        Br   2.878334e+00   2.878334e+00   0.000000e+00   4.369267e-05  -4.918276e-19   5.685646e-05
        Cs   0.000000e+00   0.000000e+00   0.000000e+00   4.208822e-05  -8.412201e-19   6.316842e-05
        Sn   2.878334e+00   2.878334e+00   2.878334e+00   3.953389e-05  -1.082278e-18   5.954330e-05
PRIMCOORD         32
         5         1
        Br   0.000000e+00   2.878334e+00   2.878334e+00  -5.677144e-05  -2.779777e-18   4.375810e-05
        Br   2.878334e+00   0.000000e+00   2.878334e+00  -6.563095e-05  -2.379061e-18   4.355332e-05
        Br   2.878334e+00   2.878334e+00   0.000000e+00  -6.570857e-05  -2.681324e-18   3.780649e-05
        Cs   0.000000e+00   0.000000e+00   0.000000e+00  -6.329567e-05  -2.566617e-18   4.200361e-05
        Sn   2.878334e+00   2.878334e+00   2.878334e+00  -5.945427e-05  -2.398687e-18   3.959309e-05
PRIMCOORD         33
         5         1
        Br   0.000000e+00   2.878334e+00   2.878334e+00  -9.652163e-06  -3.050693e-19  -7.812960e-05
        Br   2.878334e+00   0.000000e+00   2.878334e+00   6.107175e-06  -1.241484e-18  -7.816653e-05
        Br   2.878334e+00   2.878334e+00   0.000000e+00   6.100001e-06  -1.989558e-19   1.236261e-04
        Cs   0.000000e+00   0.000000e+00   0.000000e+00   1.689334e-06  -5.940520e-19  -2.162200e-05
        Sn   2.878334e+00   2.878334e+00   2.878334e+00  -4.884915e-06  -1.170533e-18   6.256662e-05
PRIMCOORD         34
         5         1
        Br   0.000000e+00   2.878334e+00   2.878334e+00   1.236187e-04  -5.364845e-18  -6.100367e-06
        Br   2.878334e+00   0.000000e+00   2.878334e+00  -7.821679e-05  -5.376770e-18  -6.103250e-06
        Br   2.878334e+00   2.878334e+00   0.000000e+00  -7.812491e-05  -5.376562e-18   9.652742e-06
        Cs   0.000000e+00   0.000000e+00   0.000000e+00  -2.163591e-05  -5.340135e-18  -1.688248e-06
        Sn   2.878334e+00   2.878334e+00   2.878334e+00   6.256287e-05  -5.399705e-18   4.885208e-06
PRIMCOORD         35
         5         1
        Br   0.000000e+00   2.878334e+00   2.878334e+00   7.406957e-18   7.923486e-05   8.188164e-19
        Br   2.878334e+00   0.000000e+00   2.878334e+00  -7.337492e-18   6.484467e-05   8.377729e-19
        Br   2.878334e+00   2.878334e+00   0.000000e+00  -7.422308e-18   7.923486e-05   3.966080e-18
        Cs   0.000000e+00   0.000000e+00   0.000000e+00  -3.179432e-18   7.305239e-05   1.741235e-18
        Sn   2.878334e+00   2.878334e+00   2.878334e+00   2.938596e-18   6.738953e-05   3.023781e-18
PRIMCOORD         36
         5         1
        Br   0.000000e+00   2.878334e+00   2.878334e+00  -7.498552e-19   8.591892e-05   2.390436e-19
        Br   2.878334e+00   0.000000e+00   2.878334e+00   2.331459e-19  -9.959347e-05   2.508076e-19
        Br   2.878334e+00   2.878334e+00   0.000000e+00   2.743352e-19   8.591892e-05  -1.072112e-18
        Cs   0.000000e+00   0.000000e+00   0.000000e+00  -3.662436e-20   7.301808e-06  -1.851476e-19
        Sn   2.878334e+00   2.878334e+00   2.878334e+00  -4.813860e-19  -7.911129e-05  -7.279484e-19
PRIMCOORD         37
         5         1
        Br   0.000000e+00   2.878334e+00   2.878334e+00   1.276415e-19  -3.846673e-10  -8.700007e-19
        Br   2.878334e+00   0.000000e+00   2.878334e+00  -1.439491e-17  -1.463920e-20   3.787115e-19
        Br   2.878334e+00   2.878334e+00   0.000000e+00   1.451830e-17   3.846673e-10  -1.009817e-20
        Cs   0.000000e+00   0.000000e+00   0.000000e+00  -7.239730e-19   9.781414e-20   6.798134e-20
        Sn   2.878334e+00   2.878334e+00   2.878334e+00   1.601571e-19  -2.254266e-20  -1.321082e-20
PRIMCOORD         38
         5         1
        Br   0.000000e+00   2.878334e+00   2.878334e+00  -1.959100e-08   6.445392e-18  -1.332083e-04
        Br   2.878334e+00   0.000000e+00   2.878334e+00   3.321711e-06  -1.169073e-19   1.282932e-04
        Br   2.878334e+00   2.878334e+00   0.000000e+00  -3.444602e-06  -7.162406e-18  -7.576154e-07
        Cs   0.000000e+00   0.000000e+00   0.000000e+00   1.117794e-07   6.795639e-19   4.317214e-06
        Sn   2.878334e+00   2.878334e+00   2.878334e+00  -2.458312e-08  -3.445936e-19  -9.506686e-07
PRIMCOORD         39
         5         1
        Br   0.000000e+00   2.878334e+00   2.878334e+00   7.574677e-07  -1.033887e-17  -3.445274e-06
        Br   2.878334e+00   0.000000e+00   2.878334e+00  -1.284309e-04  -3.231203e-20   3.318152e-06
        Br   2.878334e+00   2.878334e+00   0.000000e+00   1.331823e-04   9.993028e-18  -1.959482e-08
        Cs   0.000000e+00   0.000000e+00   0.000000e+00  -4.321845e-06   3.796752e-19   1.116596e-07
        Sn   2.878334e+00   2.878334e+00   2.878334e+00   9.504833e-07  -1.371307e-19  -2.458791e-08
PRIMCOORD         40
         5         1
        Br   0.000000e+00   2.878334e+00   2.878334e+00   2.462504e-05  -5.802662e-19  -2.129316e-06
        Br   2.878334e+00   0.000000e+00   2.878334e+00   6.951466e-05  -7.802677e-20  -2.454876e-06
        Br   2.878334e+00   2.878334e+00   0.000000e+00   6.027493e-05   3.852842e-19  -8.699220e-07
        Cs   0.000000e+00   0.000000e+00   0.000000e+00  -1.195209e-04   2.398525e-19   4.220820e-06
        Sn   2.878334e+00   2.878334e+00   2.878334e+00   3.016960e-05  -7.086270e-20  -1.065793e-06
PRIMCOORD         41
         5         1
        Br   0.000000e+00   2.878334e+00   2.878334e+00  -8.699094e-07  -5.603386e-19  -6.027581e-05
        Br   2.878334e+00   0.000000e+00   2.878334e+00  -2.455690e-06  -7.628632e-20  -6.949162e-05
        Br   2.878334e+00   2.878334e+00   0.000000e+00  -2.129285e-06   3.659814e-19  -2.462540e-05
        Cs   0.000000e+00   0.000000e+00   0.000000e+00   4.222220e-06   2.036181e-19   1.194813e-04
        Sn   2.878334e+00   2.878334e+00   2.878334e+00  -1.065778e-06  -1.483698e-19  -3.017004e-05
PRIMCOORD         42
         5         1
        Br   0.000000e+00   2.878334e+00   2.878334e+00  -4.216163e-20  -5.245405e-05   9.903059e-19
        Br   2.878334e+00   0.000000e+00   2.878334e+00   2.610774e-19  -1.673436e-05  -6.293632e-19
        Br   2.878334e+00   2.878334e+00   0.000000e+00  -5.091338e-19  -5.245405e-05   1.453120e-20
        Cs   0.000000e+00   0.000000e+00   0.000000e+00   2.539811e-19   1.186578e-04  -2.330022e-19
        Sn   2.878334e+00   2.878334e+00   2.878334e+00  -1.608548e-20  -5.044913e-05   5.210864e-20
PRIMCOORD         43
         5         1
        Br   0.000000e+00   2.878334e+00   2.878334e+00   1.168498e-04  -3.746004e-20  -1.040856e-06
        Br   2.878334e+00   0.000000e+00   2.878334e+00   2.336871e-05  -3.673048e-21  -1.041186e-06
        Br   2.878334e+00   2.878334e+00   0.000000e+00   2.335695e-05  -7.859260e-21  -5.207178e-06
        Cs   0.000000e+00   0.000000e+00   0.000000e+00   3.921181e-06   3.258507e-20  -1.747072e-07
        Sn   2.878334e+00   2.878334e+00   2.878334e+00  -1.145251e-04  -1.767249e-21   5.103580e-06
PRIMCOORD         44
         5         1
        Br   0.000000e+00   2.878334e+00   2.878334e+00  -5.207156e-06  -1.639330e-21  -2.335705e-05
        Br   2.878334e+00   0.000000e+00   2.878334e+00  -1.041375e-06  -3.428372e-20  -2.336447e-05
        Br   2.878334e+00   2.878334e+00   0.000000e+00  -1.040851e-06   4.239443e-20  -1.168503e-04
        Cs   0.000000e+00   0.000000e+00   0.000000e+00  -1.747388e-07   2.071429e-21  -3.920470e-06
        Sn   2.878334e+00   2.878334e+00   2.878334e+00   5.103559e-06  -3.785269e-20   1.145255e-04
PRIMCOORD         45
         5         1
        Br   0.000000e+00   2.878334e+00   2.878334e+00  -1.916559e-20  -1.565929e-05   7.520432e-21
        Br   2.878334e+00   0.000000e+00   2.878334e+00   4.647639e-21  -1.317771e-04   1.261508e-20
        Br   2.878334e+00   2.878334e+00   0.000000e+00  -1.738728e-21  -1.565929e-05   2.410488e-20
        Cs   0.000000e+00   0.000000e+00   0.000000e+00   2.829488e-20   1.579696e-05   1.642149e-20
        Sn   2.878334e+00   2.878334e+00   2.878334e+00   2.313655e-21   9.337038e-05  -1.970662e-22
PRIMCOORD         46
         5         1
        Br   0.000000e+00   2.878334e+00   2.878334e+00   9.772007e-06  -2.921233e-19   7.828656e-05
        Br   2.878334e+00   0.000000e+00   2.878334e+00   1.128682e-05  -6.029678e-19   7.746539e-05
        Br   2.878334e+00   2.878334e+00   0.000000e+00   1.132036e-05  -2.302926e-19   6.757884e-05
        Cs   0.000000e+00   0.000000e+00   0.000000e+00   1.091985e-05  -4.662781e-19   7.494681e-05
        Sn   2.878334e+00   2.878334e+00   2.878334e+00   1.023123e-05  -5.533221e-19   7.075461e-05
PRIMCOORD         47
         5         1
        Br   0.000000e+00   2.878334e+00   2.878334e+00  -6.736977e-05  -1.194634e-18   1.135549e-05
        Br   2.878334e+00   0.000000e+00   2.878334e+00  -7.781311e-05  -5.858376e-19   1.123638e-05
        Br   2.878334e+00   2.878334e+00   0.000000e+00  -7.804437e-05  -1.144133e-18   9.802332e-06
        Cs   0.000000e+00   0.000000e+00   0.000000e+00  -7.528322e-05  -9.287813e-19   1.087106e-05
        Sn   2.878334e+00   2.878334e+00   2.878334e+00  -7.053572e-05  -6.767592e-19   1.026298e-05
PRIMCOORD         48
         5         1
        Br   0.000000e+00   2.878334e+00   2.878334e+00  -1.319344e-05  -2.706314e-19  -7.774379e-05
        Br   2.878334e+00   0.000000e+00   2.878334e+00   8.341114e-06  -1.158549e-18  -7.782815e-05
        Br   2.878334e+00   2.878334e+00   0.000000e+00   8.323919e-06  -1.649692e-19   1.232241e-04
        Cs   0.000000e+00   0.000000e+00   0.000000e+00   2.323632e-06  -5.358410e-19  -2.168104e-05
        Sn   2.878334e+00   2.878334e+00   2.878334e+00  -6.694060e-06  -1.095837e-18   6.252122e-05
PRIMCOORD         49
         5         1
        Br   0.000000e+00   2.878334e+00   2.878334e+00   1.232178e-04  -1.396365e-18  -8.324349e-06
        Br   2.878334e+00   0.000000e+00   2.878334e+00  -7.790037e-05  -1.783774e-18  -8.333381e-06
        Br   2.878334e+00   2.878334e+00   0.000000e+00  -7.773979e-05  -1.400358e-18   1.319412e-05
        Cs   0.000000e+00   0.000000e+00   0.000000e+00  -2.170116e-05  -1.496831e-18  -2.321478e-06
        Sn   2.878334e+00   2.878334e+00   2.878334e+00   6.251800e-05  -1.792165e-18   6.694405e-06
PRIMCOORD         50
         5         1
        Br   0.000000e+00   2.878334e+00   2.878334e+00   1.680332e-18   8.278514e-05  -4.403761e-19
        Br   2.878334e+00   0.000000e+00   2.878334e+00  -2.733270e-18   5.464957e-05  -3.136330e-19
        Br   2.878334e+00   2.878334e+00   0.000000e+00  -2.695772e-18   8.278514e-05   1.898479e-18
        Cs   0.000000e+00   0.000000e+00   0.000000e+00  -1.439689e-18   7.040424e-05   2.984188e-19
        Sn   2.878334e+00   2.878334e+00   2.878334e+00   4.296650e-19   5.961403e-05   1.242249e-18
PRIMCOORD         51
         5         1
        Br   0.000000e+00   2.878334e+00   2.878334e+00  -6.227388e-19   7.985778e-05   4.754250e-19
        Br   2.878334e+00   0.000000e+00   2.878334e+00   3.169832e-19  -1.031325e-04   3.233446e-19
        Br   2.878334e+00   2.878334e+00   0.000000e+00   3.256458e-19   7.985778e-05  -9.797549e-19
        Cs   0.000000e+00   0.000000e+00   0.000000e+00  -8.613742e-20   8.204646e-07  -5.535675e-20
        Sn   2.878334e+00   2.878334e+00   2.878334e+00  -4.152869e-19  -8.354609e-05  -6.526778e-19
PRIMCOORD         52
         5         1
        Br   0.000000e+00   2.878334e+00   2.878334e+00  -1.583978e-19   1.048083e-04   5.423643e-18
        Br   2.878334e+00   0.000000e+00   2.878334e+00   1.039781e-17  -1.108853e-19  -5.112872e-18
        Br   2.878334e+00   2.878334e+00   0.000000e+00  -1.216777e-17  -1.048083e-04   4.173499e-20
        Cs   0.000000e+00   0.000000e+00   0.000000e+00   7.933305e-19   5.879122e-19  -8.461832e-20
        Sn   2.878334e+00   2.878334e+00   2.878334e+00  -2.179255e-19  -3.006204e-19   5.847012e-20
PRIMCOORD         53
         5         1
        Br   0.000000e+00   2.878334e+00   2.878334e+00  -6.299928e-08   4.837418e-18  -1.359413e-04
        Br   2.878334e+00   0.000000e+00   2.878334e+00   4.400809e-06  -1.905676e-19   1.244126e-04
        Br   2.878334e+00   2.878334e+00   0.000000e+00  -4.805707e-06  -5.396135e-18  -1.782090e-06
        Cs   0.000000e+00   0.000000e+00   0.000000e+00   3.573734e-07   5.287945e-19   1.010309e-05
        Sn   2.878334e+00   2.878334e+00   2.878334e+00  -7.929110e-08  -3.629250e-19  -2.242944e-06
PRIMCOORD         54
         5         1
        Br   0.000000e+00   2.878334e+00   2.878334e+00   1.782055e-06   1.446248e-17  -4.805801e-06
        Br   2.878334e+00   0.000000e+00   2.878334e+00  -1.244853e-04  -1.079321e-20   4.398239e-06
        Br   2.878334e+00   2.878334e+00   0.000000e+00   1.359386e-04  -1.460524e-17  -6.300051e-08
        Cs   0.000000e+00   0.000000e+00   0.000000e+00  -1.010899e-05   7.128563e-20   3.571648e-07
        Sn   2.878334e+00   2.878334e+00   2.878334e+00   2.242900e-06  -4.104544e-20  -7.929265e-08
PRIMCOORD         55
         5         1
        Br   0.000000e+00   2.878334e+00   2.878334e+00  -2.442302e-05  -2.680242e-19   3.188122e-06
        Br   2.878334e+00   0.000000e+00   2.878334e+00  -7.557214e-05  -1.937989e-19   4.467468e-06