# Animation of a phonon mode
# K point :        0       0       0
# Mode index :    2
# Frequency (cm^-1) : 1.09737e-10

ANIMSTEPS 20
CRYSTAL
PRIMVEC
   1.129404e+01   0.000000e+00   0.000000e+00
   0.000000e+00   1.129404e+01   0.000000e+00
   0.000000e+00   0.000000e+00   1.129404e+01
PRIMCOORD          1
        40         1
        Br   1.699869e-18   2.823509e+00   2.823509e+00
        Br   2.823509e+00   0.000000e+00   2.823509e+00
        Br   2.823509e+00   2.823509e+00   0.000000e+00
        Ca   2.823509e+00   2.823509e+00   2.823509e+00
        Cs   1.107592e-18   0.000000e+00   0.000000e+00
        Br   1.699869e-18   2.823509e+00   8.470528e+00
        Br   2.823509e+00   0.000000e+00   8.470528e+00
        Br   2.823509e+00   2.823509e+00   5.647018e+00
        Ca   2.823509e+00   2.823509e+00   8.470528e+00
        Cs   1.107592e-18   0.000000e+00   5.647018e+00
        Br   1.699869e-18   8.470528e+00   2.823509e+00
        Br   2.823509e+00   5.647018e+00   2.823509e+00
        Br   2.823509e+00   8.470528e+00   0.000000e+00
        Ca   2.823509e+00   8.470528e+00   2.823509e+00
        Cs   1.107592e-18   5.647018e+00   0.000000e+00
        Br   1.699869e-18   8.470528e+00   8.470528e+00
        Br   2.823509e+00   5.647018e+00   8.470528e+00
        Br   2.823509e+00   8.470528e+00   5.647018e+00
        Ca   2.823509e+00   8.470528e+00   8.470528e+00
        Cs   1.107592e-18   5.647018e+00   5.647018e+00
        Br   5.647018e+00   2.823509e+00   2.823509e+00
        Br   8.470528e+00   0.000000e+00   2.823509e+00
        Br   8.470528e+00   2.823509e+00   0.000000e+00
        Ca   8.470528e+00   2.823509e+00   2.823509e+00
        Cs   5.647018e+00   0.000000e+00   0.000000e+00
        Br   5.647018e+00   2.823509e+00   8.470528e+00
        Br   8.470528e+00   0.000000e+00   8.470528e+00
        Br   8.470528e+00   2.823509e+00   5.647018e+00
        Ca   8.470528e+00   2.823509e+00   8.470528e+00
        Cs   5.647018e+00   0.000000e+00   5.647018e+00
        Br   5.647018e+00   8.470528e+00   2.823509e+00
        Br   8.470528e+00   5.647018e+00   2.823509e+00
        Br   8.470528e+00   8.470528e+00   0.000000e+00
        Ca   8.470528e+00   8.470528e+00   2.823509e+00
        Cs   5.647018e+00   5.647018e+00   0.000000e+00
        Br   5.647018e+00   8.470528e+00   8.470528e+00
        Br   8.470528e+00   5.647018e+00   8.470528e+00
        Br   8.470528e+00   8.470528e+00   5.647018e+00
        Ca   8.470528e+00   8.470528e+00   8.470528e+00
        Cs   5.647018e+00   5.647018e+00   5.647018e+00
PRIMCOORD          2
        40         1
        Br  -8.158742e-03   2.881450e+00   2.829095e+00
        Br   2.822445e+00   5.490657e-03   2.882021e+00
        Br   2.765309e+00   2.831732e+00   2.867772e-04
        Ca   2.804454e+00   2.842507e+00   2.828599e+00
        Cs  -5.316030e-03   2.783318e-04   3.020622e-02
        Br  -8.158742e-03   2.881450e+00   8.476113e+00
        Br   2.822445e+00   5.490657e-03   8.529039e+00
        Br   2.765309e+00   2.831732e+00   5.647305e+00
        Ca   2.804454e+00   2.842507e+00   8.475617e+00
        Cs  -5.316030e-03   2.783318e-04   5.677225e+00
        Br  -8.158742e-03   8.528469e+00   2.829095e+00
        Br   2.822445e+00   5.652509e+00   2.882021e+00
        Br   2.765309e+00   8.478750e+00   2.867772e-04
        Ca   2.804454e+00   8.489525e+00   2.828599e+00
        Cs  -5.316030e-03   5.647297e+00   3.020622e-02
        Br  -8.158742e-03   8.528469e+00   8.476113e+00
        Br   2.822445e+00   5.652509e+00   8.529039e+00
        Br   2.765309e+00   8.478750e+00   5.647305e+00
        Ca   2.804454e+00   8.489525e+00   8.475617e+00
        Cs  -5.316030e-03   5.647297e+00   5.677225e+00
        Br   5.638860e+00   2.881450e+00   2.829095e+00
        Br   8.469464e+00   5.490657e-03   2.882021e+00
        Br   8.412328e+00   2.831732e+00   2.867772e-04
        Ca   8.451472e+00   2.842507e+00   2.828599e+00
        Cs   5.641702e+00   2.783318e-04   3.020622e-02
        Br   5.638860e+00   2.881450e+00   8.476113e+00
        Br   8.469464e+00   5.490657e-03   8.529039e+00
        Br   8.412328e+00   2.831732e+00   5.647305e+00
        Ca   8.451472e+00   2.842507e+00   8.475617e+00
        Cs   5.641702e+00   2.783318e-04   5.677225e+00
        Br   5.638860e+00   8.528469e+00   2.829095e+00
        Br   8.469464e+00   5.652509e+00   2.882021e+00
        Br   8.412328e+00   8.478750e+00   2.867772e-04
        Ca   8.451472e+00   8.489525e+00   2.828599e+00
        Cs   5.641702e+00   5.647297e+00   3.020622e-02
        Br   5.638860e+00   8.528469e+00   8.476113e+00
        Br   8.469464e+00   5.652509e+00   8.529039e+00
        Br   8.412328e+00   8.478750e+00   5.647305e+00
        Ca   8.451472e+00   8.489525e+00   8.475617e+00
        Cs   5.641702e+00   5.647297e+00   5.677225e+00
PRIMCOORD          3
        40         1
        Br  -1.320112e-02   2.917260e+00   2.832547e+00
        Br   2.821788e+00   8.884069e-03   2.918183e+00
        Br   2.729340e+00   2.836814e+00   4.640152e-04
        Ca   2.792677e+00   2.854248e+00   2.831745e+00
        Cs  -8.601518e-03   4.503503e-04   4.887470e-02
        Br  -1.320112e-02   2.917260e+00   8.479565e+00
        Br   2.821788e+00   8.884069e-03   8.565202e+00
        Br   2.729340e+00   2.836814e+00   5.647482e+00
        Ca   2.792677e+00   2.854248e+00   8.478763e+00
        Cs  -8.601518e-03   4.503503e-04   5.695893e+00
        Br  -1.320112e-02   8.564278e+00   2.832547e+00
        Br   2.821788e+00   5.655902e+00   2.918183e+00
        Br   2.729340e+00   8.483832e+00   4.640152e-04
        Ca   2.792677e+00   8.501266e+00   2.831745e+00
        Cs  -8.601518e-03   5.647469e+00   4.887470e-02
        Br  -1.320112e-02   8.564278e+00   8.479565e+00
        Br   2.821788e+00   5.655902e+00   8.565202e+00
        Br   2.729340e+00   8.483832e+00   5.647482e+00
        Ca   2.792677e+00   8.501266e+00   8.478763e+00
        Cs  -8.601518e-03   5.647469e+00   5.695893e+00
        Br   5.633817e+00   2.917260e+00   2.832547e+00
        Br   8.468806e+00   8.884069e-03   2.918183e+00
        Br   8.376358e+00   2.836814e+00   4.640152e-04
        Ca   8.439695e+00   2.854248e+00   2.831745e+00
        Cs   5.638417e+00   4.503503e-04   4.887470e-02
        Br   5.633817e+00   2.917260e+00   8.479565e+00
        Br   8.468806e+00   8.884069e-03   8.565202e+00
        Br   8.376358e+00   2.836814e+00   5.647482e+00
        Ca   8.439695e+00   2.854248e+00   8.478763e+00
        Cs   5.638417e+00   4.503503e-04   5.695893e+00
        Br   5.633817e+00   8.564278e+00   2.832547e+00
        Br   8.468806e+00   5.655902e+00   2.918183e+00
        Br   8.376358e+00   8.483832e+00   4.640152e-04
        Ca   8.439695e+00   8.501266e+00   2.831745e+00
        Cs   5.638417e+00   5.647469e+00   4.887470e-02
        Br   5.633817e+00   8.564278e+00   8.479565e+00
        Br   8.468806e+00   5.655902e+00   8.565202e+00
        Br   8.376358e+00   8.483832e+00   5.647482e+00
        Ca   8.439695e+00   8.501266e+00   8.478763e+00
        Cs   5.638417e+00   5.647469e+00   5.695893e+00
PRIMCOORD          4
        40         1
        Br  -1.320112e-02   2.917260e+00   2.832547e+00
        Br   2.821788e+00   8.884069e-03   2.918183e+00
        Br   2.729340e+00   2.836814e+00   4.640152e-04
        Ca   2.792677e+00   2.854248e+00   2.831745e+00
        Cs  -8.601518e-03   4.503503e-04   4.887470e-02
        Br  -1.320112e-02   2.917260e+00   8.479565e+00
        Br   2.821788e+00   8.884069e-03   8.565202e+00
        Br   2.729340e+00   2.836814e+00   5.647482e+00
        Ca   2.792677e+00   2.854248e+00   8.478763e+00
        Cs  -8.601518e-03   4.503503e-04   5.695893e+00
        Br  -1.320112e-02   8.564278e+00   2.832547e+00
        Br   2.821788e+00   5.655902e+00   2.918183e+00
        Br   2.729340e+00   8.483832e+00   4.640152e-04
        Ca   2.792677e+00   8.501266e+00   2.831745e+00
        Cs  -8.601518e-03   5.647469e+00   4.887470e-02
        Br  -1.320112e-02   8.564278e+00   8.479565e+00
        Br   2.821788e+00   5.655902e+00   8.565202e+00
        Br   2.729340e+00   8.483832e+00   5.647482e+00
        Ca   2.792677e+00   8.501266e+00   8.478763e+00
        Cs  -8.601518e-03   5.647469e+00   5.695893e+00
        Br   5.633817e+00   2.917260e+00   2.832547e+00
        Br   8.468806e+00   8.884069e-03   2.918183e+00
        Br   8.376358e+00   2.836814e+00   4.640152e-04
        Ca   8.439695e+00   2.854248e+00   2.831745e+00
        Cs   5.638417e+00   4.503503e-04   4.887470e-02
        Br   5.633817e+00   2.917260e+00   8.479565e+00
        Br   8.468806e+00   8.884069e-03   8.565202e+00
        Br   8.376358e+00   2.836814e+00   5.647482e+00
        Ca   8.439695e+00   2.854248e+00   8.478763e+00
        Cs   5.638417e+00   4.503503e-04   5.695893e+00
        Br   5.633817e+00   8.564278e+00   2.832547e+00
        Br   8.468806e+00   5.655902e+00   2.918183e+00
        Br   8.376358e+00   8.483832e+00   4.640152e-04
        Ca   8.439695e+00   8.501266e+00   2.831745e+00
        Cs   5.638417e+00   5.647469e+00   4.887470e-02
        Br   5.633817e+00   8.564278e+00   8.479565e+00
        Br   8.468806e+00   5.655902e+00   8.565202e+00
        Br   8.376358e+00   8.483832e+00   5.647482e+00
        Ca   8.439695e+00   8.501266e+00   8.478763e+00
        Cs   5.638417e+00   5.647469e+00   5.695893e+00
PRIMCOORD          5
        40         1
        Br  -8.158742e-03   2.881450e+00   2.829095e+00
        Br   2.822445e+00   5.490657e-03   2.882021e+00
        Br   2.765309e+00   2.831732e+00   2.867772e-04
        Ca   2.804454e+00   2.842507e+00   2.828599e+00
        Cs  -5.316030e-03   2.783318e-04   3.020622e-02
        Br  -8.158742e-03   2.881450e+00   8.476113e+00
        Br   2.822445e+00   5.490657e-03   8.529039e+00
        Br   2.765309e+00   2.831732e+00   5.647305e+00
        Ca   2.804454e+00   2.842507e+00   8.475617e+00
        Cs  -5.316030e-03   2.783318e-04   5.677225e+00
        Br  -8.158742e-03   8.528469e+00   2.829095e+00
        Br   2.822445e+00   5.652509e+00   2.882021e+00
        Br   2.765309e+00   8.478750e+00   2.867772e-04
        Ca   2.804454e+00   8.489525e+00   2.828599e+00
        Cs  -5.316030e-03   5.647297e+00   3.020622e-02
        Br  -8.158742e-03   8.528469e+00   8.476113e+00
        Br   2.822445e+00   5.652509e+00   8.529039e+00
        Br   2.765309e+00   8.478750e+00   5.647305e+00
        Ca   2.804454e+00   8.489525e+00   8.475617e+00
        Cs  -5.316030e-03   5.647297e+00   5.677225e+00
        Br   5.638860e+00   2.881450e+00   2.829095e+00
        Br   8.469464e+00   5.490657e-03   2.882021e+00
        Br   8.412328e+00   2.831732e+00   2.867772e-04
        Ca   8.451472e+00   2.842507e+00   2.828599e+00
        Cs   5.641702e+00   2.783318e-04   3.020622e-02
        Br   5.638860e+00   2.881450e+00   8.476113e+00
        Br   8.469464e+00   5.490657e-03   8.529039e+00
        Br   8.412328e+00   2.831732e+00   5.647305e+00
        Ca   8.451472e+00   2.842507e+00   8.475617e+00
        Cs   5.641702e+00   2.783318e-04   5.677225e+00
        Br   5.638860e+00   8.528469e+00   2.829095e+00
        Br   8.469464e+00   5.652509e+00   2.882021e+00
        Br   8.412328e+00   8.478750e+00   2.867772e-04
        Ca   8.451472e+00   8.489525e+00   2.828599e+00
        Cs   5.641702e+00   5.647297e+00   3.020622e-02
        Br   5.638860e+00   8.528469e+00   8.476113e+00
        Br   8.469464e+00   5.652509e+00   8.529039e+00
        Br   8.412328e+00   8.478750e+00   5.647305e+00
        Ca   8.451472e+00   8.489525e+00   8.475617e+00
        Cs   5.641702e+00   5.647297e+00   5.677225e+00
PRIMCOORD          6
        40         1
        Br  -3.399737e-18   2.823509e+00   2.823509e+00
        Br   2.823509e+00   1.143975e-18   2.823509e+00
        Br   2.823509e+00   2.823509e+00   5.974984e-20
        Ca   2.823509e+00   2.823509e+00   2.823509e+00
        Cs  -2.215183e-18   5.799025e-20   6.293447e-18
        Br  -3.399737e-18   2.823509e+00   8.470528e+00
        Br   2.823509e+00   1.143975e-18   8.470528e+00
        Br   2.823509e+00   2.823509e+00   5.647018e+00
        Ca   2.823509e+00   2.823509e+00   8.470528e+00
        Cs  -2.215183e-18   5.799025e-20   5.647018e+00
        Br  -3.399737e-18   8.470528e+00   2.823509e+00
        Br   2.823509e+00   5.647018e+00   2.823509e+00
        Br   2.823509e+00   8.470528e+00   5.974984e-20
        Ca   2.823509e+00   8.470528e+00   2.823509e+00
        Cs  -2.215183e-18   5.647018e+00   6.293447e-18
        Br  -3.399737e-18   8.470528e+00   8.470528e+00
        Br   2.823509e+00   5.647018e+00   8.470528e+00
        Br   2.823509e+00   8.470528e+00   5.647018e+00
        Ca   2.823509e+00   8.470528e+00   8.470528e+00
        Cs  -2.215183e-18   5.647018e+00   5.647018e+00
        Br   5.647018e+00   2.823509e+00   2.823509e+00
        Br   8.470528e+00   1.143975e-18   2.823509e+00
        Br   8.470528e+00   2.823509e+00   5.974984e-20
        Ca   8.470528e+00   2.823509e+00   2.823509e+00
        Cs   5.647018e+00   5.799025e-20   6.293447e-18
        Br   5.647018e+00   2.823509e+00   8.470528e+00
        Br   8.470528e+00   1.143975e-18   8.470528e+00
        Br   8.470528e+00   2.823509e+00   5.647018e+00
        Ca   8.470528e+00   2.823509e+00   8.470528e+00
        Cs   5.647018e+00   5.799025e-20   5.647018e+00
        Br   5.647018e+00   8.470528e+00   2.823509e+00
        Br   8.470528e+00   5.647018e+00   2.823509e+00
        Br   8.470528e+00   8.470528e+00   5.974984e-20
        Ca   8.470528e+00   8.470528e+00   2.823509e+00
        Cs   5.647018e+00   5.647018e+00   6.293447e-18
        Br   5.647018e+00   8.470528e+00   8.470528e+00
        Br   8.470528e+00   5.647018e+00   8.470528e+00
        Br   8.470528e+00   8.470528e+00   5.647018e+00
        Ca   8.470528e+00   8.470528e+00   8.470528e+00
        Cs   5.647018e+00   5.647018e+00   5.647018e+00
PRIMCOORD          7
        40         1
        Br   8.158742e-03   2.765568e+00   2.817924e+00
        Br   2.824573e+00  -5.490657e-03   2.764997e+00
        Br   2.881709e+00   2.815286e+00  -2.867772e-04
        Ca   2.842565e+00   2.804512e+00   2.818419e+00
        Cs   5.316030e-03  -2.783318e-04  -3.020622e-02
        Br   8.158742e-03   2.765568e+00   8.464942e+00
        Br   2.824573e+00  -5.490657e-03   8.412016e+00
        Br   2.881709e+00   2.815286e+00   5.646732e+00
        Ca   2.842565e+00   2.804512e+00   8.465438e+00
        Cs   5.316030e-03  -2.783318e-04   5.616812e+00
        Br   8.158742e-03   8.412587e+00   2.817924e+00
        Br   2.824573e+00   5.641528e+00   2.764997e+00
        Br   2.881709e+00   8.462305e+00  -2.867772e-04
        Ca   2.842565e+00   8.451530e+00   2.818419e+00
        Cs   5.316030e-03   5.646740e+00  -3.020622e-02
        Br   8.158742e-03   8.412587e+00   8.464942e+00
        Br   2.824573e+00   5.641528e+00   8.412016e+00
        Br   2.881709e+00   8.462305e+00   5.646732e+00
        Ca   2.842565e+00   8.451530e+00   8.465438e+00
        Cs   5.316030e-03   5.646740e+00   5.616812e+00
        Br   5.655177e+00   2.765568e+00   2.817924e+00
        Br   8.471592e+00  -5.490657e-03   2.764997e+00
        Br   8.528727e+00   2.815286e+00  -2.867772e-04
        Ca   8.489583e+00   2.804512e+00   2.818419e+00
        Cs   5.652334e+00  -2.783318e-04  -3.020622e-02
        Br   5.655177e+00   2.765568e+00   8.464942e+00
        Br   8.471592e+00  -5.490657e-03   8.412016e+00
        Br   8.528727e+00   2.815286e+00   5.646732e+00
        Ca   8.489583e+00   2.804512e+00   8.465438e+00
        Cs   5.652334e+00  -2.783318e-04   5.616812e+00
        Br   5.655177e+00   8.412587e+00   2.817924e+00
        Br   8.471592e+00   5.641528e+00   2.764997e+00
        Br   8.528727e+00   8.462305e+00  -2.867772e-04
        Ca   8.489583e+00   8.451530e+00   2.818419e+00
        Cs   5.652334e+00   5.646740e+00  -3.020622e-02
        Br   5.655177e+00   8.412587e+00   8.464942e+00
        Br   8.471592e+00   5.641528e+00   8.412016e+00
        Br   8.528727e+00   8.462305e+00   5.646732e+00
        Ca   8.489583e+00   8.451530e+00   8.465438e+00
        Cs   5.652334e+00   5.646740e+00   5.616812e+00
PRIMCOORD          8
        40         1
        Br   1.320112e-02   2.729759e+00   2.814472e+00
        Br   2.825231e+00  -8.884069e-03   2.728835e+00
        Br   2.917678e+00   2.810204e+00  -4.640152e-04
        Ca   2.854341e+00   2.792770e+00   2.815274e+00
        Cs   8.601518e-03  -4.503503e-04  -4.887470e-02
        Br   1.320112e-02   2.729759e+00   8.461490e+00
        Br   2.825231e+00  -8.884069e-03   8.375853e+00
        Br   2.917678e+00   2.810204e+00   5.646554e+00
        Ca   2.854341e+00   2.792770e+00   8.462292e+00
        Cs   8.601518e-03  -4.503503e-04   5.598144e+00
        Br   1.320112e-02   8.376777e+00   2.814472e+00
        Br   2.825231e+00   5.638134e+00   2.728835e+00
        Br   2.917678e+00   8.457223e+00  -4.640152e-04
        Ca   2.854341e+00   8.439789e+00   2.815274e+00
        Cs   8.601518e-03   5.646568e+00  -4.887470e-02
        Br   1.320112e-02   8.376777e+00   8.461490e+00
        Br   2.825231e+00   5.638134e+00   8.375853e+00
        Br   2.917678e+00   8.457223e+00   5.646554e+00
        Ca   2.854341e+00   8.439789e+00   8.462292e+00
        Cs   8.601518e-03   5.646568e+00   5.598144e+00
        Br   5.660220e+00   2.729759e+00   2.814472e+00
        Br   8.472249e+00  -8.884069e-03   2.728835e+00
        Br   8.564697e+00   2.810204e+00  -4.640152e-04
        Ca   8.501360e+00   2.792770e+00   2.815274e+00
        Cs   5.655620e+00  -4.503503e-04  -4.887470e-02
        Br   5.660220e+00   2.729759e+00   8.461490e+00
        Br   8.472249e+00  -8.884069e-03   8.375853e+00
        Br   8.564697e+00   2.810204e+00   5.646554e+00
        Ca   8.501360e+00   2.792770e+00   8.462292e+00
        Cs   5.655620e+00  -4.503503e-04   5.598144e+00
        Br   5.660220e+00   8.376777e+00   2.814472e+00
        Br   8.472249e+00   5.638134e+00   2.728835e+00
        Br   8.564697e+00   8.457223e+00  -4.640152e-04
        Ca   8.501360e+00   8.439789e+00   2.815274e+00
        Cs   5.655620e+00   5.646568e+00  -4.887470e-02
        Br   5.660220e+00   8.376777e+00   8.461490e+00
        Br   8.472249e+00   5.638134e+00   8.375853e+00
        Br   8.564697e+00   8.457223e+00   5.646554e+00
        Ca   8.501360e+00   8.439789e+00   8.462292e+00
        Cs   5.655620e+00   5.646568e+00   5.598144e+00
PRIMCOORD          9
        40         1
        Br   1.320112e-02   2.729759e+00   2.814472e+00
        Br   2.825231e+00  -8.884069e-03   2.728835e+00
        Br   2.917678e+00   2.810204e+00  -4.640152e-04
        Ca   2.854341e+00   2.792770e+00   2.815274e+00
        Cs   8.601518e-03  -4.503503e-04  -4.887470e-02
        Br   1.320112e-02   2.729759e+00   8.461490e+00
        Br   2.825231e+00  -8.884069e-03   8.375853e+00
        Br   2.917678e+00   2.810204e+00   5.646554e+00
        Ca   2.854341e+00   2.792770e+00   8.462292e+00
        Cs   8.601518e-03  -4.503503e-04   5.598144e+00
        Br   1.320112e-02   8.376777e+00   2.814472e+00
        Br   2.825231e+00   5.638134e+00   2.728835e+00
        Br   2.917678e+00   8.457223e+00  -4.640152e-04
        Ca   2.854341e+00   8.439789e+00   2.815274e+00
        Cs   8.601518e-03   5.646568e+00  -4.887470e-02
        Br   1.320112e-02   8.376777e+00   8.461490e+00
        Br   2.825231e+00   5.638134e+00   8.375853e+00
        Br   2.917678e+00   8.457223e+00   5.646554e+00
        Ca   2.854341e+00   8.439789e+00   8.462292e+00
        Cs   8.601518e-03   5.646568e+00   5.598144e+00
        Br   5.660220e+00   2.729759e+00   2.814472e+00
        Br   8.472249e+00  -8.884069e-03   2.728835e+00
        Br   8.564697e+00   2.810204e+00  -4.640152e-04
        Ca   8.501360e+00   2.792770e+00   2.815274e+00
        Cs   5.655620e+00  -4.503503e-04  -4.887470e-02
        Br   5.660220e+00   2.729759e+00   8.461490e+00
        Br   8.472249e+00  -8.884069e-03   8.375853e+00
        Br   8.564697e+00   2.810204e+00   5.646554e+00
        Ca   8.501360e+00   2.792770e+00   8.462292e+00
        Cs   5.655620e+00  -4.503503e-04   5.598144e+00
        Br   5.660220e+00   8.376777e+00   2.814472e+00
        Br   8.472249e+00   5.638134e+00   2.728835e+00
        Br   8.564697e+00   8.457223e+00  -4.640152e-04
        Ca   8.501360e+00   8.439789e+00   2.815274e+00
        Cs   5.655620e+00   5.646568e+00  -4.887470e-02
        Br   5.660220e+00   8.376777e+00   8.461490e+00
        Br   8.472249e+00   5.638134e+00   8.375853e+00
        Br   8.564697e+00   8.457223e+00   5.646554e+00
        Ca   8.501360e+00   8.439789e+00   8.462292e+00
        Cs   5.655620e+00   5.646568e+00   5.598144e+00
PRIMCOORD         10
        40         1
        Br   8.158742e-03   2.765568e+00   2.817924e+00
        Br   2.824573e+00  -5.490657e-03   2.764997e+00
        Br   2.881709e+00   2.815286e+00  -2.867772e-04
        Ca   2.842565e+00   2.804512e+00   2.818419e+00
        Cs   5.316030e-03  -2.783318e-04  -3.020622e-02
        Br   8.158742e-03   2.765568e+00   8.464942e+00
        Br   2.824573e+00  -5.490657e-03   8.412016e+00
        Br   2.881709e+00   2.815286e+00   5.646732e+00
        Ca   2.842565e+00   2.804512e+00   8.465438e+00
        Cs   5.316030e-03  -2.783318e-04   5.616812e+00
        Br   8.158742e-03   8.412587e+00   2.817924e+00
        Br   2.824573e+00   5.641528e+00   2.764997e+00
        Br   2.881709e+00   8.462305e+00  -2.867772e-04
        Ca   2.842565e+00   8.451530e+00   2.818419e+00
        Cs   5.316030e-03   5.646740e+00  -3.020622e-02
        Br   8.158742e-03   8.412587e+00   8.464942e+00
        Br   2.824573e+00   5.641528e+00   8.412016e+00
        Br   2.881709e+00   8.462305e+00   5.646732e+00
        Ca   2.842565e+00   8.451530e+00   8.465438e+00
        Cs   5.316030e-03   5.646740e+00   5.616812e+00
        Br   5.655177e+00   2.765568e+00   2.817924e+00
        Br   8.471592e+00  -5.490657e-03   2.764997e+00
        Br   8.528727e+00   2.815286e+00  -2.867772e-04
        Ca   8.489583e+00   2.804512e+00   2.818419e+00
        Cs   5.652334e+00  -2.783318e-04  -3.020622e-02
        Br   5.655177e+00   2.765568e+00   8.464942e+00
        Br   8.471592e+00  -5.490657e-03   8.412016e+00
        Br   8.528727e+00   2.815286e+00   5.646732e+00
        Ca   8.489583e+00   2.804512e+00   8.465438e+00
        Cs   5.652334e+00  -2.783318e-04   5.616812e+00
        Br   5.655177e+00   8.412587e+00   2.817924e+00
        Br   8.471592e+00   5.641528e+00   2.764997e+00
        Br   8.528727e+00   8.462305e+00  -2.867772e-04
        Ca   8.489583e+00   8.451530e+00   2.818419e+00
        Cs   5.652334e+00   5.646740e+00  -3.020622e-02
        Br   5.655177e+00   8.412587e+00   8.464942e+00
        Br   8.471592e+00   5.641528e+00   8.412016e+00
        Br   8.528727e+00   8.462305e+00   5.646732e+00
        Ca   8.489583e+00   8.451530e+00   8.465438e+00
        Cs   5.652334e+00   5.646740e+00   5.616812e+00
PRIMCOORD         11
        40         1
        Br   5.099606e-18   2.823509e+00   2.823509e+00
        Br   2.823509e+00  -2.287950e-18   2.823509e+00
        Br   2.823509e+00   2.823509e+00  -1.194997e-19
        Ca   2.823509e+00   2.823509e+00   2.823509e+00
        Cs   3.322775e-18  -1.159805e-19  -1.258689e-17
        Br   5.099606e-18   2.823509e+00   8.470528e+00
        Br   2.823509e+00  -2.287950e-18   8.470528e+00
        Br   2.823509e+00   2.823509e+00   5.647018e+00
        Ca   2.823509e+00   2.823509e+00   8.470528e+00
        Cs   3.322775e-18  -1.159805e-19   5.647018e+00
        Br   5.099606e-18   8.470528e+00   2.823509e+00
        Br   2.823509e+00   5.647018e+00   2.823509e+00
        Br   2.823509e+00   8.470528e+00  -1.194997e-19
        Ca   2.823509e+00   8.470528e+00   2.823509e+00
        Cs   3.322775e-18   5.647018e+00  -1.258689e-17
        Br   5.099606e-18   8.470528e+00   8.470528e+00
        Br   2.823509e+00   5.647018e+00   8.470528e+00
        Br   2.823509e+00   8.470528e+00   5.647018e+00
        Ca   2.823509e+00   8.470528e+00   8.470528e+00
        Cs   3.322775e-18   5.647018e+00   5.647018e+00
        Br   5.647018e+00   2.823509e+00   2.823509e+00
        Br   8.470528e+00  -2.287950e-18   2.823509e+00
        Br   8.470528e+00   2.823509e+00  -1.194997e-19
        Ca   8.470528e+00   2.823509e+00   2.823509e+00
        Cs   5.647018e+00  -1.159805e-19  -1.258689e-17
        Br   5.647018e+00   2.823509e+00   8.470528e+00
        Br   8.470528e+00  -2.287950e-18   8.470528e+00
        Br   8.470528e+00   2.823509e+00   5.647018e+00
        Ca   8.470528e+00   2.823509e+00   8.470528e+00
        Cs   5.647018e+00  -1.159805e-19   5.647018e+00
        Br   5.647018e+00   8.470528e+00   2.823509e+00
        Br   8.470528e+00   5.647018e+00   2.823509e+00
        Br   8.470528e+00   8.470528e+00  -1.194997e-19
        Ca   8.470528e+00   8.470528e+00   2.823509e+00
        Cs   5.647018e+00   5.647018e+00  -1.258689e-17
        Br   5.647018e+00   8.470528e+00   8.470528e+00
        Br   8.470528e+00   5.647018e+00   8.470528e+00
        Br   8.470528e+00   8.470528e+00   5.647018e+00
        Ca   8.470528e+00   8.470528e+00   8.470528e+00
        Cs   5.647018e+00   5.647018e+00   5.647018e+00
PRIMCOORD         12
        40         1
        Br  -8.158742e-03   2.881450e+00   2.829095e+00
        Br   2.822445e+00   5.490657e-03   2.882021e+00
        Br   2.765309e+00   2.831732e+00   2.867772e-04
        Ca   2.804454e+00   2.842507e+00   2.828599e+00
        Cs  -5.316030e-03   2.783318e-04   3.020622e-02
        Br  -8.158742e-03   2.881450e+00   8.476113e+00
        Br   2.822445e+00   5.490657e-03   8.529039e+00
        Br   2.765309e+00   2.831732e+00   5.647305e+00
        Ca   2.804454e+00   2.842507e+00   8.475617e+00
        Cs  -5.316030e-03   2.783318e-04   5.677225e+00
        Br  -8.158742e-03   8.528469e+00   2.829095e+00
        Br   2.822445e+00   5.652509e+00   2.882021e+00
        Br   2.765309e+00   8.478750e+00   2.867772e-04
        Ca   2.804454e+00   8.489525e+00   2.828599e+00
        Cs  -5.316030e-03   5.647297e+00   3.020622e-02
        Br  -8.158742e-03   8.528469e+00   8.476113e+00
        Br   2.822445e+00   5.652509e+00   8.529039e+00
        Br   2.765309e+00   8.478750e+00   5.647305e+00
        Ca   2.804454e+00   8.489525e+00   8.475617e+00
        Cs  -5.316030e-03   5.647297e+00   5.677225e+00
        Br   5.638860e+00   2.881450e+00   2.829095e+00
        Br   8.469464e+00   5.490657e-03   2.882021e+00
        Br   8.412328e+00   2.831732e+00   2.867772e-04
        Ca   8.451472e+00   2.842507e+00   2.828599e+00
        Cs   5.641702e+00   2.783318e-04   3.020622e-02
        Br   5.638860e+00   2.881450e+00   8.476113e+00
        Br   8.469464e+00   5.490657e-03   8.529039e+00
        Br   8.412328e+00   2.831732e+00   5.647305e+00
        Ca   8.451472e+00   2.842507e+00   8.475617e+00
        Cs   5.641702e+00   2.783318e-04   5.677225e+00
        Br   5.638860e+00   8.528469e+00   2.829095e+00
        Br   8.469464e+00   5.652509e+00   2.882021e+00
        Br   8.412328e+00   8.478750e+00   2.867772e-04
        Ca   8.451472e+00   8.489525e+00   2.828599e+00
        Cs   5.641702e+00   5.647297e+00   3.020622e-02
        Br   5.638860e+00   8.528469e+00   8.476113e+00
        Br   8.469464e+00   5.652509e+00   8.529039e+00
        Br   8.412328e+00   8.478750e+00   5.647305e+00
        Ca   8.451472e+00   8.489525e+00   8.475617e+00
        Cs   5.641702e+00   5.647297e+00   5.677225e+00
PRIMCOORD         13
        40         1
        Br  -1.320112e-02   2.917260e+00   2.832547e+00
        Br   2.821788e+00   8.884069e-03   2.918183e+00
        Br   2.729340e+00   2.836814e+00   4.640152e-04
        Ca   2.792677e+00   2.854248e+00   2.831745e+00
        Cs  -8.601518e-03   4.503503e-04   4.887470e-02
        Br  -1.320112e-02   2.917260e+00   8.479565e+00
        Br   2.821788e+00   8.884069e-03   8.565202e+00
        Br   2.729340e+00   2.836814e+00   5.647482e+00
        Ca   2.792677e+00   2.854248e+00   8.478763e+00
        Cs  -8.601518e-03   4.503503e-04   5.695893e+00
        Br  -1.320112e-02   8.564278e+00   2.832547e+00
        Br   2.821788e+00   5.655902e+00   2.918183e+00
        Br   2.729340e+00   8.483832e+00   4.640152e-04
        Ca   2.792677e+00   8.501266e+00   2.831745e+00
        Cs  -8.601518e-03   5.647469e+00   4.887470e-02
        Br  -1.320112e-02   8.564278e+00   8.479565e+00
        Br   2.821788e+00   5.655902e+00   8.565202e+00
        Br   2.729340e+00   8.483832e+00   5.647482e+00
        Ca   2.792677e+00   8.501266e+00   8.478763e+00
        Cs  -8.601518e-03   5.647469e+00   5.695893e+00
        Br   5.633817e+00   2.917260e+00   2.832547e+00
        Br   8.468806e+00   8.884069e-03   2.918183e+00
        Br   8.376358e+00   2.836814e+00   4.640152e-04
        Ca   8.439695e+00   2.854248e+00   2.831745e+00
        Cs   5.638417e+00   4.503503e-04   4.887470e-02
        Br   5.633817e+00   2.917260e+00   8.479565e+00
        Br   8.468806e+00   8.884069e-03   8.565202e+00
        Br   8.376358e+00   2.836814e+00   5.647482e+00
        Ca   8.439695e+00   2.854248e+00   8.478763e+00
        Cs   5.638417e+00   4.503503e-04   5.695893e+00
        Br   5.633817e+00   8.564278e+00   2.832547e+00
        Br   8.468806e+00   5.655902e+00   2.918183e+00
        Br   8.376358e+00   8.483832e+00   4.640152e-04
        Ca   8.439695e+00   8.501266e+00   2.831745e+00
        Cs   5.638417e+00   5.647469e+00   4.887470e-02
        Br   5.633817e+00   8.564278e+00   8.479565e+00
        Br   8.468806e+00   5.655902e+00   8.565202e+00
        Br   8.376358e+00   8.483832e+00   5.647482e+00
        Ca   8.439695e+00   8.501266e+00   8.478763e+00
        Cs   5.638417e+00   5.647469e+00   5.695893e+00
PRIMCOORD         14
        40         1