ANIMSTEPS 3750
CRYSTAL
PRIMVEC
   5.647018e+00   0.000000e+00   0.000000e+00
   0.000000e+00   5.647018e+00   0.000000e+00
   0.000000e+00   0.000000e+00   5.647018e+00
PRIMCOORD          1
         5         1
        Br   0.000000e+00   2.823509e+00   2.823509e+00   6.751239e-06   3.972821e-05  -7.086834e-05
        Br   2.823509e+00   0.000000e+00   2.823509e+00   6.751239e-06   3.972821e-05  -7.086834e-05
        Br   2.823509e+00   2.823509e+00   0.000000e+00   6.751239e-06   3.972821e-05  -7.086834e-05
        Ca   2.823509e+00   2.823509e+00   2.823509e+00   6.751239e-06   3.972821e-05  -7.086834e-05
        Cs   0.000000e+00   0.000000e+00   0.000000e+00   6.751239e-06   3.972821e-05  -7.086834e-05
PRIMCOORD          2
         5         1
        Br   0.000000e+00   2.823509e+00   2.823509e+00  -1.566129e-05  -6.914245e-05  -4.025266e-05
        Br   2.823509e+00   0.000000e+00   2.823509e+00  -1.566129e-05  -6.914245e-05  -4.025266e-05
        Br   2.823509e+00   2.823509e+00   0.000000e+00  -1.566129e-05  -6.914245e-05  -4.025266e-05
        Ca   2.823509e+00   2.823509e+00   2.823509e+00  -1.566129e-05  -6.914245e-05  -4.025266e-05
        Cs   0.000000e+00   0.000000e+00   0.000000e+00  -1.566129e-05  -6.914245e-05  -4.025266e-05
PRIMCOORD          3
         5         1
        Br   0.000000e+00   2.823509e+00   2.823509e+00  -7.972061e-05   1.694762e-05   1.906149e-06
        Br   2.823509e+00   0.000000e+00   2.823509e+00  -7.972061e-05   1.694762e-05   1.906149e-06
        Br   2.823509e+00   2.823509e+00   0.000000e+00  -7.972061e-05   1.694762e-05   1.906149e-06
        Ca   2.823509e+00   2.823509e+00   2.823509e+00  -7.972061e-05   1.694762e-05   1.906149e-06
        Cs   0.000000e+00   0.000000e+00   0.000000e+00  -7.972061e-05   1.694762e-05   1.906149e-06
PRIMCOORD          4
         5         1
        Br   0.000000e+00   2.823509e+00   2.823509e+00  -2.271711e-08  -2.964933e-19  -6.208740e-05
        Br   2.823509e+00   0.000000e+00   2.823509e+00  -2.846358e-08  -1.599411e-19  -6.208740e-05
        Br   2.823509e+00   2.823509e+00   0.000000e+00  -2.846358e-08   8.392144e-20  -4.955266e-05
        Ca   2.823509e+00   2.823509e+00   2.823509e+00  -2.057647e-08  -2.027150e-19  -4.488331e-05
        Cs   0.000000e+00   0.000000e+00   0.000000e+00   5.408592e-08   1.294726e-19   1.179772e-04
PRIMCOORD          5
         5         1
        Br   0.000000e+00   2.823509e+00   2.823509e+00   4.955266e-05  -2.493283e-18  -2.846358e-08
        Br   2.823509e+00   0.000000e+00   2.823509e+00   6.208740e-05   3.707507e-19  -2.846358e-08
        Br   2.823509e+00   2.823509e+00   0.000000e+00   6.208740e-05   2.394770e-18  -2.271711e-08
        Ca   2.823509e+00   2.823509e+00   2.823509e+00   4.488331e-05   5.059071e-19  -2.057647e-08
        Cs   0.000000e+00   0.000000e+00   0.000000e+00  -1.179772e-04  -8.761354e-19   5.408592e-08
PRIMCOORD          6
         5         1
        Br   0.000000e+00   2.823509e+00   2.823509e+00   2.133000e-20   4.662647e-05   3.169076e-05
        Br   2.823509e+00   0.000000e+00   2.823509e+00  -1.182598e-04  -9.284466e-20  -3.169076e-05
        Br   2.823509e+00   2.823509e+00   0.000000e+00   1.182598e-04  -4.662647e-05   1.650897e-20
        Ca   2.823509e+00   2.823509e+00   2.823509e+00   1.688340e-20  -1.305696e-19   9.468550e-21
        Cs   0.000000e+00   0.000000e+00   0.000000e+00   1.521554e-19   1.030045e-19   3.091153e-21
PRIMCOORD          7
         5         1
        Br   0.000000e+00   2.823509e+00   2.823509e+00   1.342849e-18   7.442641e-05  -1.078157e-04
        Br   2.823509e+00   0.000000e+00   2.823509e+00   4.522204e-07   6.974746e-19   1.078157e-04
        Br   2.823509e+00   2.823509e+00   0.000000e+00  -4.522204e-07  -7.442641e-05  -2.081835e-19
        Ca   2.823509e+00   2.823509e+00   2.823509e+00   1.229800e-18   9.130575e-19  -1.834228e-19
        Cs   0.000000e+00   0.000000e+00   0.000000e+00  -3.215961e-18  -1.108031e-18   2.874430e-19
PRIMCOORD          8
         5         1
        Br   0.000000e+00   2.823509e+00   2.823509e+00   2.735751e-19   9.721317e-05   6.734383e-05
        Br   2.823509e+00   0.000000e+00   2.823509e+00   5.637488e-05  -1.052173e-19  -6.734383e-05
        Br   2.823509e+00   2.823509e+00   0.000000e+00  -5.637488e-05  -9.721317e-05   3.785212e-20
        Ca   2.823509e+00   2.823509e+00   2.823509e+00   1.983616e-19  -1.622685e-19   1.354298e-20
        Cs   0.000000e+00   0.000000e+00   0.000000e+00  -5.465447e-19   2.747714e-19   9.151428e-21
PRIMCOORD          9
         5         1
        Br   0.000000e+00   2.823509e+00   2.823509e+00   1.393221e-19  -3.096586e-05  -9.859759e-19
        Br   2.823509e+00   0.000000e+00   2.823509e+00   6.298066e-19  -7.626813e-05   1.381219e-18
        Br   2.823509e+00   2.823509e+00   0.000000e+00   5.662180e-19  -3.096586e-05   7.631495e-20
        Ca   2.823509e+00   2.823509e+00   2.823509e+00   1.096140e-19  -1.011542e-04   6.136138e-20
        Cs   0.000000e+00   0.000000e+00   0.000000e+00  -6.517337e-19   1.135865e-04  -1.274390e-19
PRIMCOORD         10
         5         1
        Br   0.000000e+00   2.823509e+00   2.823509e+00  -2.314739e-06  -1.081954e-20   8.134508e-05
        Br   2.823509e+00   0.000000e+00   2.823509e+00   1.707122e-06   3.027872e-20   8.134508e-05
        Br   2.823509e+00   2.823509e+00   0.000000e+00   1.707122e-06   4.416198e-21  -1.102983e-04
        Ca   2.823509e+00   2.823509e+00   2.823509e+00  -2.778855e-06   3.217948e-20  -1.324136e-04
        Cs   0.000000e+00   0.000000e+00   0.000000e+00   1.769327e-07  -2.201414e-20   8.430920e-06
PRIMCOORD         11
         5         1
        Br   0.000000e+00   2.823509e+00   2.823509e+00   1.102983e-04  -7.107005e-19   1.707122e-06
        Br   2.823509e+00   0.000000e+00   2.823509e+00  -8.134508e-05   3.882870e-19   1.707122e-06
        Br   2.823509e+00   2.823509e+00   0.000000e+00  -8.134508e-05  -6.779660e-19  -2.314739e-06
        Ca   2.823509e+00   2.823509e+00   2.823509e+00   1.324136e-04   1.870371e-19  -2.778855e-06
        Cs   0.000000e+00   0.000000e+00   0.000000e+00  -8.430920e-06   3.899268e-19   1.769327e-07
PRIMCOORD         12
         5         1
        Br   0.000000e+00   2.823509e+00   2.823509e+00   6.877248e-19   9.735139e-05  -3.487970e-20
        Br   2.823509e+00   0.000000e+00   2.823509e+00  -3.722559e-19  -1.024097e-04   2.976587e-20
        Br   2.823509e+00   2.823509e+00   0.000000e+00  -3.740719e-19   9.735139e-05  -2.866695e-20
        Ca   2.823509e+00   2.823509e+00   2.823509e+00   8.728924e-19  -8.078983e-05  -2.785278e-20
        Cs   0.000000e+00   0.000000e+00   0.000000e+00  -1.201616e-19  -3.112400e-05   4.176495e-21
PRIMCOORD         13
         5         1
        Br   0.000000e+00   2.823509e+00   2.823509e+00   1.142445e-04  -3.554769e-21  -9.689745e-08
        Br   2.823509e+00   0.000000e+00   2.823509e+00  -6.534128e-06  -9.568089e-21  -9.689745e-08
        Br   2.823509e+00   2.823509e+00   0.000000e+00  -6.534128e-06  -3.166290e-20   1.694181e-06
        Ca   2.823509e+00   2.823509e+00   2.823509e+00  -2.054943e-04  -1.193994e-19  -3.047365e-06
        Cs   0.000000e+00   0.000000e+00   0.000000e+00   1.139249e-06  -2.129309e-20   1.689442e-08
PRIMCOORD         14
         5         1
        Br   0.000000e+00   2.823509e+00   2.823509e+00  -1.694181e-06  -2.317276e-21  -6.534128e-06
        Br   2.823509e+00   0.000000e+00   2.823509e+00   9.689745e-08  -1.340514e-21  -6.534128e-06
        Br   2.823509e+00   2.823509e+00   0.000000e+00   9.689745e-08  -3.989149e-21   1.142445e-04
        Ca   2.823509e+00   2.823509e+00   2.823509e+00   3.047365e-06   9.612503e-21  -2.054943e-04
        Cs   0.000000e+00   0.000000e+00   0.000000e+00  -1.689442e-08   1.854064e-21   1.139249e-06
PRIMCOORD         15
         5         1
        Br   0.000000e+00   2.823509e+00   2.823509e+00   5.486447e-20  -9.017212e-06   5.740654e-21
        Br   2.823509e+00   0.000000e+00   2.823509e+00  -1.660867e-20  -1.066613e-04  -3.383975e-21
        Br   2.823509e+00   2.823509e+00   0.000000e+00   9.962449e-21  -9.017212e-06  -3.792454e-21
        Ca   2.823509e+00   2.823509e+00   2.823509e+00  -3.158722e-20   2.122113e-04  -1.117040e-21
        Cs   0.000000e+00   0.000000e+00   0.000000e+00   5.683520e-21   1.097496e-05   1.346785e-21
PRIMCOORD         16
         5         1
        Br   0.000000e+00   2.823509e+00   2.823509e+00  -2.280113e-06   2.933167e-17  -8.147158e-05
        Br   2.823509e+00   0.000000e+00   2.823509e+00  -2.279459e-06   2.927786e-17  -8.146348e-05
        Br   2.823509e+00   2.823509e+00   0.000000e+00  -2.281141e-06   2.931940e-17  -8.143483e-05
        Ca   2.823509e+00   2.823509e+00   2.823509e+00  -2.280112e-06   2.920465e-17  -8.143482e-05
        Cs   0.000000e+00   0.000000e+00   0.000000e+00  -2.280806e-06   2.950327e-17  -8.151164e-05
PRIMCOORD         17
         5         1
        Br   0.000000e+00   2.823509e+00   2.823509e+00   8.147069e-05   3.498671e-17  -2.280137e-06
        Br   2.823509e+00   0.000000e+00   2.823509e+00   8.144733e-05   3.527645e-17  -2.279911e-06
        Br   2.823509e+00   2.823509e+00   0.000000e+00   8.150745e-05   3.511346e-17  -2.279109e-06
        Ca   2.823509e+00   2.823509e+00   2.823509e+00   8.147068e-05   3.517855e-17  -2.279109e-06
        Cs   0.000000e+00   0.000000e+00   0.000000e+00   8.149548e-05   3.513995e-17  -2.281259e-06
PRIMCOORD         18
         5         1
        Br   0.000000e+00   2.823509e+00   2.823509e+00  -3.418603e-17   8.135832e-05   3.041931e-17
        Br   2.823509e+00   0.000000e+00   2.823509e+00  -3.438371e-17   8.128254e-05   3.032335e-17
        Br   2.823509e+00   2.823509e+00   0.000000e+00  -3.437151e-17   8.135832e-05   3.033656e-17
        Ca   2.823509e+00   2.823509e+00   2.823509e+00  -3.420201e-17   8.111385e-05   3.026614e-17
        Cs   0.000000e+00   0.000000e+00   0.000000e+00  -3.446213e-17   8.165055e-05   3.041830e-17
PRIMCOORD         19
         5         1
        Br   0.000000e+00   2.823509e+00   2.823509e+00   2.942121e-06  -2.616421e-19  -6.210992e-05
        Br   2.823509e+00   0.000000e+00   2.823509e+00   3.676361e-06  -1.066639e-19  -6.184009e-05
        Br   2.823509e+00   2.823509e+00   0.000000e+00   3.695244e-06   1.220856e-19  -4.945137e-05
        Ca   2.823509e+00   2.823509e+00   2.823509e+00   2.665091e-06  -1.401497e-19  -4.479504e-05
        Cs   0.000000e+00   0.000000e+00   0.000000e+00  -7.000551e-06   9.815971e-20   1.177563e-04
PRIMCOORD         20
         5         1
        Br   0.000000e+00   2.823509e+00   2.823509e+00   4.947518e-05  -3.319409e-19   3.693466e-06
        Br   2.823509e+00   0.000000e+00   2.823509e+00   6.182229e-05   6.794060e-20   3.677420e-06
        Br   2.823509e+00   2.823509e+00   0.000000e+00   6.213983e-05   1.672261e-19   2.940705e-06
        Ca   2.823509e+00   2.823509e+00   2.823509e+00   4.481661e-05   8.425245e-20   2.663809e-06
        Cs   0.000000e+00   0.000000e+00   0.000000e+00  -1.177224e-04  -2.190035e-19  -7.002567e-06
PRIMCOORD         21
         5         1
        Br   0.000000e+00   2.823509e+00   2.823509e+00  -2.613335e-18   1.310103e-04  -2.191096e-15
        Br   2.823509e+00   0.000000e+00   2.823509e+00  -6.166938e-15  -8.675235e-20   2.195227e-15
        Br   2.823509e+00   2.823509e+00   0.000000e+00   6.150586e-15  -1.310103e-04   8.778885e-19
        Ca   2.823509e+00   2.823509e+00   2.823509e+00  -2.442726e-18  -1.279300e-19   8.458283e-19
        Cs   0.000000e+00   0.000000e+00   0.000000e+00   5.423473e-18   5.410802e-20  -1.838682e-18
PRIMCOORD         22
         5         1
        Br   0.000000e+00   2.823509e+00   2.823509e+00  -5.736046e-08  -6.137668e-15   1.437121e-06
        Br   2.823509e+00   0.000000e+00   2.823509e+00  -1.310997e-04   3.387617e-20  -1.440002e-06
        Br   2.823509e+00   2.823509e+00   0.000000e+00   1.308454e-04   6.137690e-15  -6.300100e-10
        Ca   2.823509e+00   2.823509e+00   2.823509e+00  -5.317210e-08   6.415041e-20  -5.840077e-10
        Cs   0.000000e+00   0.000000e+00   0.000000e+00   1.194781e-07  -1.138759e-19   1.312350e-09
PRIMCOORD         23
         5         1
        Br   0.000000e+00   2.823509e+00   2.823509e+00  -6.300477e-10  -2.261225e-15  -1.308376e-04
        Br   2.823509e+00   0.000000e+00   2.823509e+00  -1.440000e-06  -1.403211e-19   1.310999e-04
        Br   2.823509e+00   2.823509e+00   0.000000e+00   1.437207e-06   2.261221e-15   5.735704e-08
        Ca   2.823509e+00   2.823509e+00   2.823509e+00  -5.840426e-10  -1.884061e-19   5.316892e-08
        Cs   0.000000e+00   0.000000e+00   0.000000e+00   1.312348e-09   2.531041e-19  -1.194783e-07
PRIMCOORD         24
         5         1
        Br   0.000000e+00   2.823509e+00   2.823509e+00  -5.571777e-20  -3.121733e-05   4.161200e-19
        Br   2.823509e+00   0.000000e+00   2.823509e+00   2.236324e-19  -7.626128e-05  -1.189440e-19
        Br   2.823509e+00   2.823509e+00   0.000000e+00   4.681394e-19  -3.121733e-05   8.159503e-20
        Ca   2.823509e+00   2.823509e+00   2.823509e+00  -8.068909e-20  -1.010687e-04   3.368256e-20
        Cs   0.000000e+00   0.000000e+00   0.000000e+00  -1.383526e-20   1.134854e-04  -1.019156e-19
PRIMCOORD         25
         5         1
        Br   0.000000e+00   2.823509e+00   2.823509e+00  -1.110996e-05  -4.138317e-20   8.091813e-05
        Br   2.823509e+00   0.000000e+00   2.823509e+00   8.194096e-06   5.792570e-20   8.092683e-05
        Br   2.823509e+00   2.823509e+00   0.000000e+00   8.194140e-06  -2.100037e-20  -1.097123e-04
        Ca   2.823509e+00   2.823509e+00   2.823509e+00  -1.333701e-05   5.963836e-20  -1.317046e-04
        Cs   0.000000e+00   0.000000e+00   0.000000e+00   8.489639e-07  -1.564342e-20   8.384568e-06
PRIMCOORD         26
         5         1
        Br   0.000000e+00   2.823509e+00   2.823509e+00   1.097240e-04  -1.316851e-19   8.193266e-06
        Br   2.823509e+00   0.000000e+00   2.823509e+00  -8.092633e-05  -1.612315e-19   8.194147e-06
        Br   2.823509e+00   2.823509e+00   0.000000e+00  -8.092676e-05  -2.297066e-19  -1.110878e-05
        Ca   2.823509e+00   2.823509e+00   2.823509e+00   1.317187e-04  -2.667271e-19  -1.333559e-05
        Cs   0.000000e+00   0.000000e+00   0.000000e+00  -8.384516e-06   1.615795e-19   8.489692e-07
PRIMCOORD         27
         5         1
        Br   0.000000e+00   2.823509e+00   2.823509e+00  -9.480654e-20  -9.713713e-05  -6.301427e-20
        Br   2.823509e+00   0.000000e+00   2.823509e+00  -7.575176e-20   1.025668e-04   2.172074e-20
        Br   2.823509e+00   2.823509e+00   0.000000e+00  -6.266428e-20  -9.713713e-05   5.177171e-20
        Ca   2.823509e+00   2.823509e+00   2.823509e+00  -1.551923e-19   8.088074e-05   4.714051e-20
        Cs   0.000000e+00   0.000000e+00   0.000000e+00  -1.651496e-20   3.100907e-05  -4.543276e-21
PRIMCOORD         28
         5         1
        Br   0.000000e+00   2.823509e+00   2.823509e+00   1.141939e-04  -1.503933e-20  -1.036038e-07
        Br   2.823509e+00   0.000000e+00   2.823509e+00  -6.530654e-06  -2.267959e-20  -1.036053e-07
        Br   2.823509e+00   2.823509e+00   0.000000e+00  -6.531204e-06  -2.249707e-20   1.811445e-06
        Ca   2.823509e+00   2.823509e+00   2.823509e+00  -2.054058e-04  -6.391537e-21  -3.258331e-06
        Cs   0.000000e+00   0.000000e+00   0.000000e+00   1.138625e-06  -1.072008e-20   1.806367e-08
PRIMCOORD         29
         5         1
        Br   0.000000e+00   2.823509e+00   2.823509e+00  -1.811615e-06  -2.962395e-20  -6.530592e-06
        Br   2.823509e+00   0.000000e+00   2.823509e+00   1.036048e-07  -2.586310e-20  -6.530685e-06
        Br   2.823509e+00   2.823509e+00   0.000000e+00   1.036135e-07  -2.817851e-20   1.141832e-04
        Ca   2.823509e+00   2.823509e+00   2.823509e+00   3.258636e-06  -4.660099e-21  -2.053866e-04
        Cs   0.000000e+00   0.000000e+00   0.000000e+00  -1.806359e-08  -3.729924e-20   1.138631e-06
PRIMCOORD         30
         5         1
        Br   0.000000e+00   2.823509e+00   2.823509e+00   3.798942e-20  -8.993218e-06  -1.552675e-20
        Br   2.823509e+00   0.000000e+00   2.823509e+00   1.903295e-21  -1.065465e-04   1.783582e-20
        Br   2.823509e+00   2.823509e+00   0.000000e+00   3.055243e-21  -8.993218e-06  -7.916426e-21
        Ca   2.823509e+00   2.823509e+00   2.823509e+00   6.686429e-20   2.116206e-04   8.966624e-22
        Cs   0.000000e+00   0.000000e+00   0.000000e+00   7.503509e-21   1.096205e-05   1.330572e-21
PRIMCOORD         31
         5         1
        Br   0.000000e+00   2.823509e+00   2.823509e+00   8.431663e-06  -4.541150e-18   8.100302e-05
        Br   2.823509e+00   0.000000e+00   2.823509e+00   8.413927e-06  -4.569003e-18   8.097095e-05
        Br   2.823509e+00   2.823509e+00   0.000000e+00   8.446882e-06  -4.536732e-18   8.085707e-05
        Ca   2.823509e+00   2.823509e+00   2.823509e+00   8.431657e-06  -4.483269e-18   8.085702e-05
        Cs   0.000000e+00   0.000000e+00   0.000000e+00   8.433845e-06  -4.651232e-18   8.116262e-05
PRIMCOORD         32
         5         1
        Br   0.000000e+00   2.823509e+00   2.823509e+00   8.102000e-05  -1.608673e-17  -8.429896e-06
        Br   2.823509e+00   0.000000e+00   2.823509e+00   8.084958e-05  -1.623515e-17  -8.426558e-06
        Br   2.823509e+00   2.823509e+00   0.000000e+00   8.116624e-05  -1.608221e-17  -8.414707e-06
        Ca   2.823509e+00   2.823509e+00   2.823509e+00   8.101995e-05  -1.583545e-17  -8.414702e-06
        Cs   0.000000e+00   0.000000e+00   0.000000e+00   8.104096e-05  -1.660774e-17  -8.446506e-06
PRIMCOORD         33
         5         1
        Br   0.000000e+00   2.823509e+00   2.823509e+00   1.766555e-17   7.916608e-05   3.050892e-18
        Br   2.823509e+00   0.000000e+00   2.823509e+00   1.739205e-17   7.945445e-05   2.968647e-18
        Br   2.823509e+00   2.823509e+00   0.000000e+00   1.771462e-17   7.916608e-05   2.923479e-18
        Ca   2.823509e+00   2.823509e+00   2.823509e+00   1.759353e-17   7.822064e-05   2.775681e-18
        Cs   0.000000e+00   0.000000e+00   0.000000e+00   1.739371e-17   8.089723e-05   2.916054e-18
PRIMCOORD         34
         5         1
        Br   0.000000e+00   2.823509e+00   2.823509e+00  -4.957357e-05   9.142053e-20   1.938577e-06
        Br   2.823509e+00   0.000000e+00   2.823509e+00  -6.135428e-05  -1.926812e-19   1.905270e-06
        Br   2.823509e+00   2.823509e+00   0.000000e+00  -6.270986e-05  -1.666013e-19   1.532489e-06
        Ca   2.823509e+00   2.823509e+00   2.823509e+00  -4.491615e-05  -2.360328e-19   1.388512e-06
        Cs   0.000000e+00   0.000000e+00   0.000000e+00   1.175756e-04   3.348991e-19  -3.651144e-06
PRIMCOORD         35
         5         1
        Br   0.000000e+00   2.823509e+00   2.823509e+00  -1.535613e-06  -1.596865e-19  -6.258229e-05
        Br   2.823509e+00   0.000000e+00   2.823509e+00  -1.900538e-06   5.503278e-21  -6.150705e-05
        Br   2.823509e+00   2.823509e+00   0.000000e+00  -1.942529e-06   1.876712e-19  -4.947272e-05
        Ca   2.823509e+00   2.823509e+00   2.823509e+00  -1.391343e-06  -2.492614e-21  -4.482478e-05
        Cs   0.000000e+00   0.000000e+00   0.000000e+00   3.642075e-06   3.974017e-20   1.178684e-04
PRIMCOORD         36
         5         1
        Br   0.000000e+00   2.823509e+00   2.823509e+00  -2.274300e-18  -2.549478e-08   1.067827e-17
        Br   2.823509e+00   0.000000e+00   2.823509e+00  -1.265802e-15   1.202982e-19  -1.363124e-17
        Br   2.823509e+00   2.823509e+00   0.000000e+00   1.274891e-15   2.549478e-08  -2.510560e-21
        Ca   2.823509e+00   2.823509e+00   2.823509e+00  -2.133821e-18   6.170431e-20  -6.191732e-20
        Cs   0.000000e+00   0.000000e+00   0.000000e+00   4.584654e-18   1.973071e-19   4.291464e-20
PRIMCOORD         37
         5         1
        Br   0.000000e+00   2.823509e+00   2.823509e+00   2.283944e-07   2.890836e-16  -8.926759e-07
        Br   2.823509e+00   0.000000e+00   2.823509e+00   1.313915e-04  -3.375854e-19   8.998456e-07
        Br   2.823509e+00   2.823509e+00   0.000000e+00  -1.304070e-04  -2.895965e-16   1.563430e-09
        Ca   2.823509e+00   2.823509e+00   2.823509e+00   2.117692e-07  -4.687995e-19   1.449625e-09
        Cs   0.000000e+00   0.000000e+00   0.000000e+00  -4.757014e-07   7.245537e-19  -3.257881e-09
PRIMCOORD         38
         5         1
        Br   0.000000e+00   2.823509e+00   2.823509e+00   1.564135e-09   4.642612e-17   1.303482e-04
        Br   2.823509e+00   0.000000e+00   2.823509e+00   8.998206e-07  -8.329759e-20  -1.313951e-04
        Br   2.823509e+00   2.823509e+00   0.000000e+00  -8.930785e-07  -4.651399e-17  -2.282915e-07
        Ca   2.823509e+00   2.823509e+00   2.823509e+00   1.450279e-09  -8.064939e-20  -2.116738e-07
        Cs   0.000000e+00   0.000000e+00   0.000000e+00  -3.257791e-09   6.594684e-20   4.757147e-07
PRIMCOORD         39
         5         1
        Br   0.000000e+00   2.823509e+00   2.823509e+00   2.334014e-20  -3.165428e-05   4.681417e-20
        Br   2.823509e+00   0.000000e+00   2.823509e+00  -4.428146e-19  -7.586948e-05   2.212512e-19
        Br   2.823509e+00   2.823509e+00   0.000000e+00   1.001904e-18  -3.165428e-05  -1.314797e-19
        Ca   2.823509e+00   2.823509e+00   2.823509e+00   4.766235e-20  -9.981923e-05  -1.778021e-19
        Cs   0.000000e+00   0.000000e+00   0.000000e+00  -2.624566e-19   1.126433e-04  -4.349335e-21
PRIMCOORD         40
         5         1
        Br   0.000000e+00   2.823509e+00   2.823509e+00  -1.431462e-09  -9.488565e-20   8.123847e-05
        Br   2.823509e+00   0.000000e+00   2.823509e+00   1.056198e-09   1.385739e-19   8.127340e-05
        Br   2.823509e+00   2.823509e+00   0.000000e+00   1.055979e-09  -8.058366e-20  -1.101251e-04
        Ca   2.823509e+00   2.823509e+00   2.823509e+00  -1.718192e-09   1.542155e-19  -1.321838e-04
        Cs   0.000000e+00   0.000000e+00   0.000000e+00   1.093118e-10  -1.723527e-19   8.411441e-06
PRIMCOORD         41
         5         1
        Br   0.000000e+00   2.823509e+00   2.823509e+00   1.101490e-04   2.587778e-19   1.055750e-09
        Br   2.823509e+00   0.000000e+00   2.823509e+00  -8.127292e-05  -3.802726e-19   1.056204e-09
        Br   2.823509e+00   2.823509e+00   0.000000e+00  -8.125607e-05   2.239942e-19  -1.431152e-09
        Ca   2.823509e+00   2.823509e+00   2.823509e+00   1.322124e-04  -3.573181e-19  -1.717820e-09
        Cs   0.000000e+00   0.000000e+00   0.000000e+00  -8.411391e-06  -2.838737e-21   1.093125e-10
PRIMCOORD         42
         5         1
        Br   0.000000e+00   2.823509e+00   2.823509e+00  -3.608575e-19   9.613062e-05   5.499076e-20
        Br   2.823509e+00   0.000000e+00   2.823509e+00   3.525046e-19  -1.028694e-04   6.741997e-20
        Br   2.823509e+00   2.823509e+00   0.000000e+00   8.443297e-20   9.613062e-05  -1.059022e-19
        Ca   2.823509e+00   2.823509e+00   2.823509e+00  -2.934106e-19  -8.084603e-05  -1.135586e-19
        Cs   0.000000e+00   0.000000e+00   0.000000e+00   8.099818e-21  -3.061362e-05   5.959116e-21
PRIMCOORD         43
         5         1
        Br   0.000000e+00   2.823509e+00   2.823509e+00   1.139884e-04   1.403431e-22  -1.980518e-07
        Br   2.823509e+00   0.000000e+00   2.823509e+00  -6.518453e-06  -2.635456e-20  -1.980631e-07
        Br   2.823509e+00   2.823509e+00   0.000000e+00  -6.519365e-06   1.748369e-20   3.462853e-06
        Ca   2.823509e+00   2.823509e+00   2.823509e+00  -2.050438e-04  -1.543964e-19  -6.229028e-06
        Cs   0.000000e+00   0.000000e+00   0.000000e+00   1.136445e-06  -3.797405e-22   3.453085e-08
PRIMCOORD         44
         5         1
        Br   0.000000e+00   2.823509e+00   2.823509e+00  -3.463518e-06  -1.584261e-20  -6.518114e-06
        Br   2.823509e+00   0.000000e+00   2.823509e+00   1.980621e-07  -1.016155e-20  -6.518483e-06
        Br   2.823509e+00   2.823509e+00   0.000000e+00   1.980898e-07  -1.853338e-20   1.139665e-04
        Ca   2.823509e+00   2.823509e+00   2.823509e+00   6.230223e-06  -8.074546e-21  -2.050045e-04
        Cs   0.000000e+00   0.000000e+00   0.000000e+00  -3.453069e-08  -3.180854e-20   1.136450e-06
PRIMCOORD         45
         5         1
        Br   0.000000e+00   2.823509e+00   2.823509e+00  -7.698871e-20   8.954198e-06  -1.800240e-20
        Br   2.823509e+00   0.000000e+00   2.823509e+00   6.997333e-21   1.064105e-04   1.734521e-20
        Br   2.823509e+00   2.823509e+00   0.000000e+00  -4.517484e-21   8.954198e-06   2.949972e-21
        Ca   2.823509e+00   2.823509e+00   2.823509e+00   1.196077e-19  -2.106247e-04  -7.914202e-21
        Cs   0.000000e+00   0.000000e+00   0.000000e+00  -3.990703e-21  -1.094476e-05  -1.314959e-21
PRIMCOORD         46
         5         1
        Br   0.000000e+00   2.823509e+00   2.823509e+00  -4.118332e-06  -9.010835e-19   8.122918e-05
        Br   2.823509e+00   0.000000e+00   2.823509e+00  -4.140480e-06  -9.613201e-19   8.115736e-05
        Br   2.823509e+00   2.823509e+00   0.000000e+00  -4.135059e-06  -9.071462e-19   8.090061e-05
        Ca   2.823509e+00   2.823509e+00   2.823509e+00  -4.118325e-06  -9.003391e-19   8.090047e-05
        Cs   0.000000e+00   0.000000e+00   0.000000e+00  -4.162571e-06  -9.394195e-19   8.159037e-05
PRIMCOORD         47
         5         1
        Br   0.000000e+00   2.823509e+00   2.823509e+00   8.070240e-05   8.544058e-19   4.145214e-06
        Br   2.823509e+00   0.000000e+00   2.823509e+00   8.113641e-05   8.083798e-19   4.141549e-06
        Br   2.823509e+00   2.823509e+00   0.000000e+00   8.103017e-05   8.987511e-19   4.128447e-06
        Ca   2.823509e+00   2.823509e+00   2.823509e+00   8.070226e-05   8.864226e-19   4.128440e-06
        Cs   0.000000e+00   0.000000e+00   0.000000e+00   8.156931e-05   6.463744e-19   4.163646e-06
PRIMCOORD         48
         5         1
        Br   0.000000e+00   2.823509e+00   2.823509e+00  -6.190502e-19  -5.938807e-05  -1.083808e-18
        Br   2.823509e+00   0.000000e+00   2.823509e+00  -3.586442e-19  -6.304432e-05  -1.206090e-18
        Br   2.823509e+00   2.823509e+00   0.000000e+00  -5.883354e-19  -5.938807e-05  -1.127126e-18
        Ca   2.823509e+00   2.823509e+00   2.823509e+00  -6.095297e-19  -5.780924e-05  -1.164916e-18
        Cs   0.000000e+00   0.000000e+00   0.000000e+00  -1.579795e-19  -6.563134e-05  -1.142853e-18
PRIMCOORD         49
         5         1
        Br   0.000000e+00   2.823509e+00   2.823509e+00   3.949507e-06   1.312299e-19   6.305046e-05
        Br   2.823509e+00   0.000000e+00   2.823509e+00   4.869614e-06  -6.248923e-21   6.065820e-05
        Br   2.823509e+00   2.823509e+00   0.000000e+00   5.054575e-06  -1.744317e-19   4.926591e-05
        Ca   2.823509e+00   2.823509e+00   2.823509e+00   3.579826e-06  -5.833930e-22   4.465453e-05
        Cs   0.000000e+00   0.000000e+00   0.000000e+00  -9.431145e-06  -3.623214e-20  -1.174788e-04
PRIMCOORD         50
         5         1
        Br   0.000000e+00   2.823509e+00   2.823509e+00  -4.919173e-05   3.616913e-19   5.062197e-06
        Br   2.823509e+00   0.000000e+00   2.823509e+00  -6.065181e-05  -2.069488e-19   4.870127e-06
        Br   2.823509e+00   2.823509e+00   0.000000e+00  -6.295552e-05  -2.538804e-19   3.955463e-06
        Ca   2.823509e+00   2.823509e+00   2.823509e+00  -4.458730e-05  -3.004891e-19   3.585225e-06
        Cs   0.000000e+00   0.000000e+00   0.000000e+00   1.174664e-04   4.927791e-19  -9.432139e-06
PRIMCOORD         51
         5         1
        Br   0.000000e+00   2.823509e+00   2.823509e+00   5.872930e-18  -1.309879e-04   2.182425e-16
        Br   2.823509e+00   0.000000e+00   2.823509e+00   1.559422e-15   1.612728e-19  -2.218869e-16
        Br   2.823509e+00   2.823509e+00   0.000000e+00  -1.519355e-15   1.309879e-04  -7.923150e-19
        Ca   2.823509e+00   2.823509e+00   2.823509e+00   5.485942e-18   2.723551e-19  -7.115932e-19
        Cs   0.000000e+00   0.000000e+00   0.000000e+00  -1.233333e-17  -7.885051e-19   1.629302e-18
PRIMCOORD         52
         5         1
        Br   0.000000e+00   2.823509e+00   2.823509e+00  -5.089225e-07  -1.547122e-15   5.081190e-07
        Br   2.823509e+00   0.000000e+00   2.823509e+00  -1.318695e-04   5.137858e-20  -5.173229e-07
        Br   2.823509e+00   2.823509e+00   0.000000e+00   1.294137e-04   1.547141e-15  -1.998190e-09
        Ca   2.823509e+00   2.823509e+00   2.823509e+00  -4.720691e-07   6.650532e-20  -1.853492e-09
        Cs   0.000000e+00   0.000000e+00   0.000000e+00   1.062030e-06  -1.053196e-19   4.166332e-09
PRIMCOORD         53
         5         1
        Br   0.000000e+00   2.823509e+00   2.823509e+00  -1.996421e-09  -2.265542e-16  -1.295284e-04
        Br   2.823509e+00   0.000000e+00   2.823509e+00  -5.173030e-07   2.175965e-19   1.318746e-04
        Br   2.823509e+00   2.823509e+00   0.000000e+00   5.076692e-07   2.265873e-16   5.093735e-07
        Ca   2.823509e+00   2.823509e+00   2.823509e+00  -1.851851e-09   2.501032e-19   4.724873e-07
        Cs   0.000000e+00   0.000000e+00   0.000000e+00   4.166172e-09  -3.379447e-19  -1.062071e-06
PRIMCOORD         54
         5         1
        Br   0.000000e+00   2.823509e+00   2.823509e+00  -6.440572e-20  -1.186790e-05  -1.500336e-19
        Br   2.823509e+00   0.000000e+00   2.823509e+00   1.307988e-19  -3.372985e-05   2.248186e-19
        Br   2.823509e+00   2.823509e+00   0.000000e+00   4.990120e-19  -1.186790e-05  -1.344073e-20
        Ca   2.823509e+00   2.823509e+00   2.823509e+00  -8.688487e-20  -3.586931e-05  -2.591180e-20
        Cs   0.000000e+00   0.000000e+00   0.000000e+00  -1.352351e-19   4.990452e-05  -1.327562e-20
PRIMCOORD         55
         5         1
        Br   0.000000e+00   2.823509e+00   2.823509e+00   5.850951e-07   1.294589e-20  -8.108158e-05
        Br   2.823509e+00   0.000000e+00   2.823509e+00  -4.332422e-07  -4.817555e-20  -8.116001e-05