# Animation of a phonon mode
# K point :        0       0       0
# Mode index :    3
# Frequency (cm^-1) : 1.09737e-10

ANIMSTEPS 20
CRYSTAL
PRIMVEC
   1.151334e+01   0.000000e+00  -0.000000e+00
  -0.000000e+00   1.151334e+01  -0.000000e+00
  -0.000000e+00   0.000000e+00   1.151334e+01
PRIMCOORD          1
        40         1
        Br   2.929848e-19   2.878334e+00   2.878334e+00
        Br   2.878334e+00   0.000000e+00   2.878334e+00
        Br   2.878334e+00   2.878334e+00   1.071107e-17
        Cs   4.947256e-18   3.983708e-18   4.018790e-18
        Sn   2.878334e+00   2.878334e+00   2.878334e+00
        Br   2.929848e-19   2.878334e+00   8.635002e+00
        Br   2.878334e+00   0.000000e+00   8.635002e+00
        Br   2.878334e+00   2.878334e+00   5.756668e+00
        Cs   4.947256e-18   3.983708e-18   5.756668e+00
        Sn   2.878334e+00   2.878334e+00   8.635002e+00
        Br   2.929848e-19   8.635002e+00   2.878334e+00
        Br   2.878334e+00   5.756668e+00   2.878334e+00
        Br   2.878334e+00   8.635002e+00   1.071107e-17
        Cs   4.947256e-18   5.756668e+00   4.018790e-18
        Sn   2.878334e+00   8.635002e+00   2.878334e+00
        Br   2.929848e-19   8.635002e+00   8.635002e+00
        Br   2.878334e+00   5.756668e+00   8.635002e+00
        Br   2.878334e+00   8.635002e+00   5.756668e+00
        Cs   4.947256e-18   5.756668e+00   5.756668e+00
        Sn   2.878334e+00   8.635002e+00   8.635002e+00
        Br   5.756668e+00   2.878334e+00   2.878334e+00
        Br   8.635002e+00   0.000000e+00   2.878334e+00
        Br   8.635002e+00   2.878334e+00   1.071107e-17
        Cs   5.756668e+00   3.983708e-18   4.018790e-18
        Sn   8.635002e+00   2.878334e+00   2.878334e+00
        Br   5.756668e+00   2.878334e+00   8.635002e+00
        Br   8.635002e+00   0.000000e+00   8.635002e+00
        Br   8.635002e+00   2.878334e+00   5.756668e+00
        Cs   5.756668e+00   3.983708e-18   5.756668e+00
        Sn   8.635002e+00   2.878334e+00   8.635002e+00
        Br   5.756668e+00   8.635002e+00   2.878334e+00
        Br   8.635002e+00   5.756668e+00   2.878334e+00
        Br   8.635002e+00   8.635002e+00   1.071107e-17
        Cs   5.756668e+00   5.756668e+00   4.018790e-18
        Sn   8.635002e+00   8.635002e+00   2.878334e+00
        Br   5.756668e+00   8.635002e+00   8.635002e+00
        Br   8.635002e+00   5.756668e+00   8.635002e+00
        Br   8.635002e+00   8.635002e+00   5.756668e+00
        Cs   5.756668e+00   5.756668e+00   5.756668e+00
        Sn   8.635002e+00   8.635002e+00   8.635002e+00
PRIMCOORD          2
        40         1
        Br  -1.406219e-03   2.875097e+00   2.860417e+00
        Br   2.903284e+00   5.277046e-02   2.871426e+00
        Br   2.899683e+00   2.859459e+00  -5.140920e-02
        Cs  -2.374500e-02  -1.912033e-02  -1.928871e-02
        Sn   2.821118e+00   2.871716e+00   2.866610e+00
        Br  -1.406219e-03   2.875097e+00   8.617085e+00
        Br   2.903284e+00   5.277046e-02   8.628094e+00
        Br   2.899683e+00   2.859459e+00   5.705259e+00
        Cs  -2.374500e-02  -1.912033e-02   5.737380e+00
        Sn   2.821118e+00   2.871716e+00   8.623278e+00
        Br  -1.406219e-03   8.631765e+00   2.860417e+00
        Br   2.903284e+00   5.809439e+00   2.871426e+00
        Br   2.899683e+00   8.616128e+00  -5.140920e-02
        Cs  -2.374500e-02   5.737548e+00  -1.928871e-02
        Sn   2.821118e+00   8.628384e+00   2.866610e+00
        Br  -1.406219e-03   8.631765e+00   8.617085e+00
        Br   2.903284e+00   5.809439e+00   8.628094e+00
        Br   2.899683e+00   8.616128e+00   5.705259e+00
        Cs  -2.374500e-02   5.737548e+00   5.737380e+00
        Sn   2.821118e+00   8.628384e+00   8.623278e+00
        Br   5.755262e+00   2.875097e+00   2.860417e+00
        Br   8.659952e+00   5.277046e-02   2.871426e+00
        Br   8.656351e+00   2.859459e+00  -5.140920e-02
        Cs   5.732923e+00  -1.912033e-02  -1.928871e-02
        Sn   8.577786e+00   2.871716e+00   2.866610e+00
        Br   5.755262e+00   2.875097e+00   8.617085e+00
        Br   8.659952e+00   5.277046e-02   8.628094e+00
        Br   8.656351e+00   2.859459e+00   5.705259e+00
        Cs   5.732923e+00  -1.912033e-02   5.737380e+00
        Sn   8.577786e+00   2.871716e+00   8.623278e+00
        Br   5.755262e+00   8.631765e+00   2.860417e+00
        Br   8.659952e+00   5.809439e+00   2.871426e+00
        Br   8.656351e+00   8.616128e+00  -5.140920e-02
        Cs   5.732923e+00   5.737548e+00  -1.928871e-02
        Sn   8.577786e+00   8.628384e+00   2.866610e+00
        Br   5.755262e+00   8.631765e+00   8.617085e+00
        Br   8.659952e+00   5.809439e+00   8.628094e+00
        Br   8.656351e+00   8.616128e+00   5.705259e+00
        Cs   5.732923e+00   5.737548e+00   5.737380e+00
        Sn   8.577786e+00   8.628384e+00   8.623278e+00
PRIMCOORD          3
        40         1
        Br  -2.275310e-03   2.873096e+00   2.849344e+00
        Br   2.918703e+00   8.538441e-02   2.867157e+00
        Br   2.912877e+00   2.847794e+00  -8.318184e-02
        Cs  -3.842022e-02  -3.093734e-02  -3.120979e-02
        Sn   2.785757e+00   2.867626e+00   2.859364e+00
        Br  -2.275310e-03   2.873096e+00   8.606012e+00
        Br   2.918703e+00   8.538441e-02   8.623825e+00
        Br   2.912877e+00   2.847794e+00   5.673486e+00
        Cs  -3.842022e-02  -3.093734e-02   5.725458e+00
        Sn   2.785757e+00   2.867626e+00   8.616033e+00
        Br  -2.275310e-03   8.629764e+00   2.849344e+00
        Br   2.918703e+00   5.842053e+00   2.867157e+00
        Br   2.912877e+00   8.604462e+00  -8.318184e-02
        Cs  -3.842022e-02   5.725731e+00  -3.120979e-02
        Sn   2.785757e+00   8.624294e+00   2.859364e+00
        Br  -2.275310e-03   8.629764e+00   8.606012e+00
        Br   2.918703e+00   5.842053e+00   8.623825e+00
        Br   2.912877e+00   8.604462e+00   5.673486e+00
        Cs  -3.842022e-02   5.725731e+00   5.725458e+00
        Sn   2.785757e+00   8.624294e+00   8.616033e+00
        Br   5.754393e+00   2.873096e+00   2.849344e+00
        Br   8.675371e+00   8.538441e-02   2.867157e+00
        Br   8.669545e+00   2.847794e+00  -8.318184e-02
        Cs   5.718248e+00  -3.093734e-02  -3.120979e-02
        Sn   8.542425e+00   2.867626e+00   2.859364e+00
        Br   5.754393e+00   2.873096e+00   8.606012e+00
        Br   8.675371e+00   8.538441e-02   8.623825e+00
        Br   8.669545e+00   2.847794e+00   5.673486e+00
        Cs   5.718248e+00  -3.093734e-02   5.725458e+00
        Sn   8.542425e+00   2.867626e+00   8.616033e+00
        Br   5.754393e+00   8.629764e+00   2.849344e+00
        Br   8.675371e+00   5.842053e+00   2.867157e+00
        Br   8.669545e+00   8.604462e+00  -8.318184e-02
        Cs   5.718248e+00   5.725731e+00  -3.120979e-02
        Sn   8.542425e+00   8.624294e+00   2.859364e+00
        Br   5.754393e+00   8.629764e+00   8.606012e+00
        Br   8.675371e+00   5.842053e+00   8.623825e+00
        Br   8.669545e+00   8.604462e+00   5.673486e+00
        Cs   5.718248e+00   5.725731e+00   5.725458e+00
        Sn   8.542425e+00   8.624294e+00   8.616033e+00
PRIMCOORD          4
        40         1
        Br  -2.275310e-03   2.873096e+00   2.849344e+00
        Br   2.918703e+00   8.538441e-02   2.867157e+00
        Br   2.912877e+00   2.847794e+00  -8.318184e-02
        Cs  -3.842022e-02  -3.093734e-02  -3.120979e-02
        Sn   2.785757e+00   2.867626e+00   2.859364e+00
        Br  -2.275310e-03   2.873096e+00   8.606012e+00
        Br   2.918703e+00   8.538441e-02   8.623825e+00
        Br   2.912877e+00   2.847794e+00   5.673486e+00
        Cs  -3.842022e-02  -3.093734e-02   5.725458e+00
        Sn   2.785757e+00   2.867626e+00   8.616033e+00
        Br  -2.275310e-03   8.629764e+00   2.849344e+00
        Br   2.918703e+00   5.842053e+00   2.867157e+00
        Br   2.912877e+00   8.604462e+00  -8.318184e-02
        Cs  -3.842022e-02   5.725731e+00  -3.120979e-02
        Sn   2.785757e+00   8.624294e+00   2.859364e+00
        Br  -2.275310e-03   8.629764e+00   8.606012e+00
        Br   2.918703e+00   5.842053e+00   8.623825e+00
        Br   2.912877e+00   8.604462e+00   5.673486e+00
        Cs  -3.842022e-02   5.725731e+00   5.725458e+00
        Sn   2.785757e+00   8.624294e+00   8.616033e+00
        Br   5.754393e+00   2.873096e+00   2.849344e+00
        Br   8.675371e+00   8.538441e-02   2.867157e+00
        Br   8.669545e+00   2.847794e+00  -8.318184e-02
        Cs   5.718248e+00  -3.093734e-02  -3.120979e-02
        Sn   8.542425e+00   2.867626e+00   2.859364e+00
        Br   5.754393e+00   2.873096e+00   8.606012e+00
        Br   8.675371e+00   8.538441e-02   8.623825e+00
        Br   8.669545e+00   2.847794e+00   5.673486e+00
        Cs   5.718248e+00  -3.093734e-02   5.725458e+00
        Sn   8.542425e+00   2.867626e+00   8.616033e+00
        Br   5.754393e+00   8.629764e+00   2.849344e+00
        Br   8.675371e+00   5.842053e+00   2.867157e+00
        Br   8.669545e+00   8.604462e+00  -8.318184e-02
        Cs   5.718248e+00   5.725731e+00  -3.120979e-02
        Sn   8.542425e+00   8.624294e+00   2.859364e+00
        Br   5.754393e+00   8.629764e+00   8.606012e+00
        Br   8.675371e+00   5.842053e+00   8.623825e+00
        Br   8.669545e+00   8.604462e+00   5.673486e+00
        Cs   5.718248e+00   5.725731e+00   5.725458e+00
        Sn   8.542425e+00   8.624294e+00   8.616033e+00
PRIMCOORD          5
        40         1
        Br  -1.406219e-03   2.875097e+00   2.860417e+00
        Br   2.903284e+00   5.277046e-02   2.871426e+00
        Br   2.899683e+00   2.859459e+00  -5.140920e-02
        Cs  -2.374500e-02  -1.912033e-02  -1.928871e-02
        Sn   2.821118e+00   2.871716e+00   2.866610e+00
        Br  -1.406219e-03   2.875097e+00   8.617085e+00
        Br   2.903284e+00   5.277046e-02   8.628094e+00
        Br   2.899683e+00   2.859459e+00   5.705259e+00
        Cs  -2.374500e-02  -1.912033e-02   5.737380e+00
        Sn   2.821118e+00   2.871716e+00   8.623278e+00
        Br  -1.406219e-03   8.631765e+00   2.860417e+00
        Br   2.903284e+00   5.809439e+00   2.871426e+00
        Br   2.899683e+00   8.616128e+00  -5.140920e-02
        Cs  -2.374500e-02   5.737548e+00  -1.928871e-02
        Sn   2.821118e+00   8.628384e+00   2.866610e+00
        Br  -1.406219e-03   8.631765e+00   8.617085e+00
        Br   2.903284e+00   5.809439e+00   8.628094e+00
        Br   2.899683e+00   8.616128e+00   5.705259e+00
        Cs  -2.374500e-02   5.737548e+00   5.737380e+00
        Sn   2.821118e+00   8.628384e+00   8.623278e+00
        Br   5.755262e+00   2.875097e+00   2.860417e+00
        Br   8.659952e+00   5.277046e-02   2.871426e+00
        Br   8.656351e+00   2.859459e+00  -5.140920e-02
        Cs   5.732923e+00  -1.912033e-02  -1.928871e-02
        Sn   8.577786e+00   2.871716e+00   2.866610e+00
        Br   5.755262e+00   2.875097e+00   8.617085e+00
        Br   8.659952e+00   5.277046e-02   8.628094e+00
        Br   8.656351e+00   2.859459e+00   5.705259e+00
        Cs   5.732923e+00  -1.912033e-02   5.737380e+00
        Sn   8.577786e+00   2.871716e+00   8.623278e+00
        Br   5.755262e+00   8.631765e+00   2.860417e+00
        Br   8.659952e+00   5.809439e+00   2.871426e+00
        Br   8.656351e+00   8.616128e+00  -5.140920e-02
        Cs   5.732923e+00   5.737548e+00  -1.928871e-02
        Sn   8.577786e+00   8.628384e+00   2.866610e+00
        Br   5.755262e+00   8.631765e+00   8.617085e+00
        Br   8.659952e+00   5.809439e+00   8.628094e+00
        Br   8.656351e+00   8.616128e+00   5.705259e+00
        Cs   5.732923e+00   5.737548e+00   5.737380e+00
        Sn   8.577786e+00   8.628384e+00   8.623278e+00
PRIMCOORD          6
        40         1
        Br  -5.859696e-19   2.878334e+00   2.878334e+00
        Br   2.878334e+00   1.099469e-17   2.878334e+00
        Br   2.878334e+00   2.878334e+00  -2.142215e-17
        Cs  -9.894513e-18  -7.967416e-18  -8.037581e-18
        Sn   2.878334e+00   2.878334e+00   2.878334e+00
        Br  -5.859696e-19   2.878334e+00   8.635002e+00
        Br   2.878334e+00   1.099469e-17   8.635002e+00
        Br   2.878334e+00   2.878334e+00   5.756668e+00
        Cs  -9.894513e-18  -7.967416e-18   5.756668e+00
        Sn   2.878334e+00   2.878334e+00   8.635002e+00
        Br  -5.859696e-19   8.635002e+00   2.878334e+00
        Br   2.878334e+00   5.756668e+00   2.878334e+00
        Br   2.878334e+00   8.635002e+00  -2.142215e-17
        Cs  -9.894513e-18   5.756668e+00  -8.037581e-18
        Sn   2.878334e+00   8.635002e+00   2.878334e+00
        Br  -5.859696e-19   8.635002e+00   8.635002e+00
        Br   2.878334e+00   5.756668e+00   8.635002e+00
        Br   2.878334e+00   8.635002e+00   5.756668e+00
        Cs  -9.894513e-18   5.756668e+00   5.756668e+00
        Sn   2.878334e+00   8.635002e+00   8.635002e+00
        Br   5.756668e+00   2.878334e+00   2.878334e+00
        Br   8.635002e+00   1.099469e-17   2.878334e+00
        Br   8.635002e+00   2.878334e+00  -2.142215e-17
        Cs   5.756668e+00  -7.967416e-18  -8.037581e-18
        Sn   8.635002e+00   2.878334e+00   2.878334e+00
        Br   5.756668e+00   2.878334e+00   8.635002e+00
        Br   8.635002e+00   1.099469e-17   8.635002e+00
        Br   8.635002e+00   2.878334e+00   5.756668e+00
        Cs   5.756668e+00  -7.967416e-18   5.756668e+00
        Sn   8.635002e+00   2.878334e+00   8.635002e+00
        Br   5.756668e+00   8.635002e+00   2.878334e+00
        Br   8.635002e+00   5.756668e+00   2.878334e+00
        Br   8.635002e+00   8.635002e+00  -2.142215e-17
        Cs   5.756668e+00   5.756668e+00  -8.037581e-18
        Sn   8.635002e+00   8.635002e+00   2.878334e+00
        Br   5.756668e+00   8.635002e+00   8.635002e+00
        Br   8.635002e+00   5.756668e+00   8.635002e+00
        Br   8.635002e+00   8.635002e+00   5.756668e+00
        Cs   5.756668e+00   5.756668e+00   5.756668e+00
        Sn   8.635002e+00   8.635002e+00   8.635002e+00
PRIMCOORD          7
        40         1
        Br   1.406219e-03   2.881571e+00   2.896251e+00
        Br   2.853385e+00  -5.277046e-02   2.885242e+00
        Br   2.856986e+00   2.897209e+00   5.140920e-02
        Cs   2.374500e-02   1.912033e-02   1.928871e-02
        Sn   2.935550e+00   2.884952e+00   2.890058e+00
        Br   1.406219e-03   2.881571e+00   8.652919e+00
        Br   2.853385e+00  -5.277046e-02   8.641910e+00
        Br   2.856986e+00   2.897209e+00   5.808077e+00
        Cs   2.374500e-02   1.912033e-02   5.775957e+00
        Sn   2.935550e+00   2.884952e+00   8.646726e+00
        Br   1.406219e-03   8.638240e+00   2.896251e+00
        Br   2.853385e+00   5.703898e+00   2.885242e+00
        Br   2.856986e+00   8.653877e+00   5.140920e-02
        Cs   2.374500e-02   5.775789e+00   1.928871e-02
        Sn   2.935550e+00   8.641621e+00   2.890058e+00
        Br   1.406219e-03   8.638240e+00   8.652919e+00
        Br   2.853385e+00   5.703898e+00   8.641910e+00
        Br   2.856986e+00   8.653877e+00   5.808077e+00
        Cs   2.374500e-02   5.775789e+00   5.775957e+00
        Sn   2.935550e+00   8.641621e+00   8.646726e+00
        Br   5.758074e+00   2.881571e+00   2.896251e+00
        Br   8.610053e+00  -5.277046e-02   2.885242e+00
        Br   8.613654e+00   2.897209e+00   5.140920e-02
        Cs   5.780413e+00   1.912033e-02   1.928871e-02
        Sn   8.692218e+00   2.884952e+00   2.890058e+00
        Br   5.758074e+00   2.881571e+00   8.652919e+00
        Br   8.610053e+00  -5.277046e-02   8.641910e+00
        Br   8.613654e+00   2.897209e+00   5.808077e+00
        Cs   5.780413e+00   1.912033e-02   5.775957e+00
        Sn   8.692218e+00   2.884952e+00   8.646726e+00
        Br   5.758074e+00   8.638240e+00   2.896251e+00
        Br   8.610053e+00   5.703898e+00   2.885242e+00
        Br   8.613654e+00   8.653877e+00   5.140920e-02
        Cs   5.780413e+00   5.775789e+00   1.928871e-02
        Sn   8.692218e+00   8.641621e+00   2.890058e+00
        Br   5.758074e+00   8.638240e+00   8.652919e+00
        Br   8.610053e+00   5.703898e+00   8.641910e+00
        Br   8.613654e+00   8.653877e+00   5.808077e+00
        Cs   5.780413e+00   5.775789e+00   5.775957e+00
        Sn   8.692218e+00   8.641621e+00   8.646726e+00
PRIMCOORD          8
        40         1
        Br   2.275310e-03   2.883572e+00   2.907324e+00
        Br   2.837965e+00  -8.538441e-02   2.889511e+00
        Br   2.843792e+00   2.908874e+00   8.318184e-02
        Cs   3.842022e-02   3.093734e-02   3.120979e-02
        Sn   2.970911e+00   2.889043e+00   2.897304e+00
        Br   2.275310e-03   2.883572e+00   8.663993e+00
        Br   2.837965e+00  -8.538441e-02   8.646180e+00
        Br   2.843792e+00   2.908874e+00   5.839850e+00
        Cs   3.842022e-02   3.093734e-02   5.787878e+00
        Sn   2.970911e+00   2.889043e+00   8.653972e+00
        Br   2.275310e-03   8.640240e+00   2.907324e+00
        Br   2.837965e+00   5.671284e+00   2.889511e+00
        Br   2.843792e+00   8.665542e+00   8.318184e-02
        Cs   3.842022e-02   5.787606e+00   3.120979e-02
        Sn   2.970911e+00   8.645711e+00   2.897304e+00
        Br   2.275310e-03   8.640240e+00   8.663993e+00
        Br   2.837965e+00   5.671284e+00   8.646180e+00
        Br   2.843792e+00   8.665542e+00   5.839850e+00
        Cs   3.842022e-02   5.787606e+00   5.787878e+00
        Sn   2.970911e+00   8.645711e+00   8.653972e+00
        Br   5.758944e+00   2.883572e+00   2.907324e+00
        Br   8.594633e+00  -8.538441e-02   2.889511e+00
        Br   8.600460e+00   2.908874e+00   8.318184e-02
        Cs   5.795088e+00   3.093734e-02   3.120979e-02
        Sn   8.727580e+00   2.889043e+00   2.897304e+00
        Br   5.758944e+00   2.883572e+00   8.663993e+00
        Br   8.594633e+00  -8.538441e-02   8.646180e+00
        Br   8.600460e+00   2.908874e+00   5.839850e+00
        Cs   5.795088e+00   3.093734e-02   5.787878e+00
        Sn   8.727580e+00   2.889043e+00   8.653972e+00
        Br   5.758944e+00   8.640240e+00   2.907324e+00
        Br   8.594633e+00   5.671284e+00   2.889511e+00
        Br   8.600460e+00   8.665542e+00   8.318184e-02
        Cs   5.795088e+00   5.787606e+00   3.120979e-02
        Sn   8.727580e+00   8.645711e+00   2.897304e+00
        Br   5.758944e+00   8.640240e+00   8.663993e+00
        Br   8.594633e+00   5.671284e+00   8.646180e+00
        Br   8.600460e+00   8.665542e+00   5.839850e+00
        Cs   5.795088e+00   5.787606e+00   5.787878e+00
        Sn   8.727580e+00   8.645711e+00   8.653972e+00
PRIMCOORD          9
        40         1
        Br   2.275310e-03   2.883572e+00   2.907324e+00
        Br   2.837965e+00  -8.538441e-02   2.889511e+00
        Br   2.843792e+00   2.908874e+00   8.318184e-02
        Cs   3.842022e-02   3.093734e-02   3.120979e-02
        Sn   2.970911e+00   2.889043e+00   2.897304e+00
        Br   2.275310e-03   2.883572e+00   8.663993e+00
        Br   2.837965e+00  -8.538441e-02   8.646180e+00
        Br   2.843792e+00   2.908874e+00   5.839850e+00
        Cs   3.842022e-02   3.093734e-02   5.787878e+00
        Sn   2.970911e+00   2.889043e+00   8.653972e+00
        Br   2.275310e-03   8.640240e+00   2.907324e+00
        Br   2.837965e+00   5.671284e+00   2.889511e+00
        Br   2.843792e+00   8.665542e+00   8.318184e-02
        Cs   3.842022e-02   5.787606e+00   3.120979e-02
        Sn   2.970911e+00   8.645711e+00   2.897304e+00
        Br   2.275310e-03   8.640240e+00   8.663993e+00
        Br   2.837965e+00   5.671284e+00   8.646180e+00
        Br   2.843792e+00   8.665542e+00   5.839850e+00
        Cs   3.842022e-02   5.787606e+00   5.787878e+00
        Sn   2.970911e+00   8.645711e+00   8.653972e+00
        Br   5.758944e+00   2.883572e+00   2.907324e+00
        Br   8.594633e+00  -8.538441e-02   2.889511e+00
        Br   8.600460e+00   2.908874e+00   8.318184e-02
        Cs   5.795088e+00   3.093734e-02   3.120979e-02
        Sn   8.727580e+00   2.889043e+00   2.897304e+00
        Br   5.758944e+00   2.883572e+00   8.663993e+00
        Br   8.594633e+00  -8.538441e-02   8.646180e+00
        Br   8.600460e+00   2.908874e+00   5.839850e+00
        Cs   5.795088e+00   3.093734e-02   5.787878e+00
        Sn   8.727580e+00   2.889043e+00   8.653972e+00
        Br   5.758944e+00   8.640240e+00   2.907324e+00
        Br   8.594633e+00   5.671284e+00   2.889511e+00
        Br   8.600460e+00   8.665542e+00   8.318184e-02
        Cs   5.795088e+00   5.787606e+00   3.120979e-02
        Sn   8.727580e+00   8.645711e+00   2.897304e+00
        Br   5.758944e+00   8.640240e+00   8.663993e+00
        Br   8.594633e+00   5.671284e+00   8.646180e+00
        Br   8.600460e+00   8.665542e+00   5.839850e+00
        Cs   5.795088e+00   5.787606e+00   5.787878e+00
        Sn   8.727580e+00   8.645711e+00   8.653972e+00
PRIMCOORD         10
        40         1
        Br   1.406219e-03   2.881571e+00   2.896251e+00
        Br   2.853385e+00  -5.277046e-02   2.885242e+00
        Br   2.856986e+00   2.897209e+00   5.140920e-02
        Cs   2.374500e-02   1.912033e-02   1.928871e-02
        Sn   2.935550e+00   2.884952e+00   2.890058e+00
        Br   1.406219e-03   2.881571e+00   8.652919e+00
        Br   2.853385e+00  -5.277046e-02   8.641910e+00
        Br   2.856986e+00   2.897209e+00   5.808077e+00
        Cs   2.374500e-02   1.912033e-02   5.775957e+00
        Sn   2.935550e+00   2.884952e+00   8.646726e+00
        Br   1.406219e-03   8.638240e+00   2.896251e+00
        Br   2.853385e+00   5.703898e+00   2.885242e+00
        Br   2.856986e+00   8.653877e+00   5.140920e-02
        Cs   2.374500e-02   5.775789e+00   1.928871e-02
        Sn   2.935550e+00   8.641621e+00   2.890058e+00
        Br   1.406219e-03   8.638240e+00   8.652919e+00
        Br   2.853385e+00   5.703898e+00   8.641910e+00
        Br   2.856986e+00   8.653877e+00   5.808077e+00
        Cs   2.374500e-02   5.775789e+00   5.775957e+00
        Sn   2.935550e+00   8.641621e+00   8.646726e+00
        Br   5.758074e+00   2.881571e+00   2.896251e+00
        Br   8.610053e+00  -5.277046e-02   2.885242e+00
        Br   8.613654e+00   2.897209e+00   5.140920e-02
        Cs   5.780413e+00   1.912033e-02   1.928871e-02
        Sn   8.692218e+00   2.884952e+00   2.890058e+00
        Br   5.758074e+00   2.881571e+00   8.652919e+00
        Br   8.610053e+00  -5.277046e-02   8.641910e+00
        Br   8.613654e+00   2.897209e+00   5.808077e+00
        Cs   5.780413e+00   1.912033e-02   5.775957e+00
        Sn   8.692218e+00   2.884952e+00   8.646726e+00
        Br   5.758074e+00   8.638240e+00   2.896251e+00
        Br   8.610053e+00   5.703898e+00   2.885242e+00
        Br   8.613654e+00   8.653877e+00   5.140920e-02
        Cs   5.780413e+00   5.775789e+00   1.928871e-02
        Sn   8.692218e+00   8.641621e+00   2.890058e+00
        Br   5.758074e+00   8.638240e+00   8.652919e+00
        Br   8.610053e+00   5.703898e+00   8.641910e+00
        Br   8.613654e+00   8.653877e+00   5.808077e+00
        Cs   5.780413e+00   5.775789e+00   5.775957e+00
        Sn   8.692218e+00   8.641621e+00   8.646726e+00
PRIMCOORD         11
        40         1
        Br   8.789544e-19   2.878334e+00   2.878334e+00
        Br   2.878334e+00  -2.198938e-17   2.878334e+00
        Br   2.878334e+00   2.878334e+00   3.213322e-17
        Cs   1.484177e-17   1.195112e-17   1.205637e-17
        Sn   2.878334e+00   2.878334e+00   2.878334e+00
        Br   8.789544e-19   2.878334e+00   8.635002e+00
        Br   2.878334e+00  -2.198938e-17   8.635002e+00
        Br   2.878334e+00   2.878334e+00   5.756668e+00
        Cs   1.484177e-17   1.195112e-17   5.756668e+00
        Sn   2.878334e+00   2.878334e+00   8.635002e+00
        Br   8.789544e-19   8.635002e+00   2.878334e+00
        Br   2.878334e+00   5.756668e+00   2.878334e+00
        Br   2.878334e+00   8.635002e+00   3.213322e-17
        Cs   1.484177e-17   5.756668e+00   1.205637e-17
        Sn   2.878334e+00   8.635002e+00   2.878334e+00
        Br   8.789544e-19   8.635002e+00   8.635002e+00
        Br   2.878334e+00   5.756668e+00   8.635002e+00
        Br   2.878334e+00   8.635002e+00   5.756668e+00
        Cs   1.484177e-17   5.756668e+00   5.756668e+00
        Sn   2.878334e+00   8.635002e+00   8.635002e+00
        Br   5.756668e+00   2.878334e+00   2.878334e+00
        Br   8.635002e+00  -2.198938e-17   2.878334e+00
        Br   8.635002e+00   2.878334e+00   3.213322e-17
        Cs   5.756668e+00   1.195112e-17   1.205637e-17
        Sn   8.635002e+00   2.878334e+00   2.878334e+00
        Br   5.756668e+00   2.878334e+00   8.635002e+00
        Br   8.635002e+00  -2.198938e-17   8.635002e+00
        Br   8.635002e+00   2.878334e+00   5.756668e+00
        Cs   5.756668e+00   1.195112e-17   5.756668e+00
        Sn   8.635002e+00   2.878334e+00   8.635002e+00
        Br   5.756668e+00   8.635002e+00   2.878334e+00
        Br   8.635002e+00   5.756668e+00   2.878334e+00
        Br   8.635002e+00   8.635002e+00   3.213322e-17
        Cs   5.756668e+00   5.756668e+00   1.205637e-17
        Sn   8.635002e+00   8.635002e+00   2.878334e+00
        Br   5.756668e+00   8.635002e+00   8.635002e+00
        Br   8.635002e+00   5.756668e+00   8.635002e+00
        Br   8.635002e+00   8.635002e+00   5.756668e+00
        Cs   5.756668e+00   5.756668e+00   5.756668e+00
        Sn   8.635002e+00   8.635002e+00   8.635002e+00
PRIMCOORD         12
        40         1
        Br  -1.406219e-03   2.875097e+00   2.860417e+00
        Br   2.903284e+00   5.277046e-02   2.871426e+00
        Br   2.899683e+00   2.859459e+00  -5.140920e-02
        Cs  -2.374500e-02  -1.912033e-02  -1.928871e-02
        Sn   2.821118e+00   2.871716e+00   2.866610e+00
        Br  -1.406219e-03   2.875097e+00   8.617085e+00
        Br   2.903284e+00   5.277046e-02   8.628094e+00
        Br   2.899683e+00   2.859459e+00   5.705259e+00
        Cs  -2.374500e-02  -1.912033e-02   5.737380e+00
        Sn   2.821118e+00   2.871716e+00   8.623278e+00
        Br  -1.406219e-03   8.631765e+00   2.860417e+00
        Br   2.903284e+00   5.809439e+00   2.871426e+00
        Br   2.899683e+00   8.616128e+00  -5.140920e-02
        Cs  -2.374500e-02   5.737548e+00  -1.928871e-02
        Sn   2.821118e+00   8.628384e+00   2.866610e+00
        Br  -1.406219e-03   8.631765e+00   8.617085e+00
        Br   2.903284e+00   5.809439e+00   8.628094e+00
        Br   2.899683e+00   8.616128e+00   5.705259e+00
        Cs  -2.374500e-02   5.737548e+00   5.737380e+00
        Sn   2.821118e+00   8.628384e+00   8.623278e+00
        Br   5.755262e+00   2.875097e+00   2.860417e+00
        Br   8.659952e+00   5.277046e-02   2.871426e+00
        Br   8.656351e+00   2.859459e+00  -5.140920e-02
        Cs   5.732923e+00  -1.912033e-02  -1.928871e-02
        Sn   8.577786e+00   2.871716e+00   2.866610e+00
        Br   5.755262e+00   2.875097e+00   8.617085e+00
        Br   8.659952e+00   5.277046e-02   8.628094e+00
        Br   8.656351e+00   2.859459e+00   5.705259e+00
        Cs   5.732923e+00  -1.912033e-02   5.737380e+00
        Sn   8.577786e+00   2.871716e+00   8.623278e+00
        Br   5.755262e+00   8.631765e+00   2.860417e+00
        Br   8.659952e+00   5.809439e+00   2.871426e+00
        Br   8.656351e+00   8.616128e+00  -5.140920e-02
        Cs   5.732923e+00   5.737548e+00  -1.928871e-02
        Sn   8.577786e+00   8.628384e+00   2.866610e+00
        Br   5.755262e+00   8.631765e+00   8.617085e+00
        Br   8.659952e+00   5.809439e+00   8.628094e+00
        Br   8.656351e+00   8.616128e+00   5.705259e+00
        Cs   5.732923e+00   5.737548e+00   5.737380e+00
        Sn   8.577786e+00   8.628384e+00   8.623278e+00
PRIMCOORD         13
        40         1
        Br  -2.275310e-03   2.873096e+00   2.849344e+00
        Br   2.918703e+00   8.538441e-02   2.867157e+00
        Br   2.912877e+00   2.847794e+00  -8.318184e-02
        Cs  -3.842022e-02  -3.093734e-02  -3.120979e-02
        Sn   2.785757e+00   2.867626e+00   2.859364e+00
        Br  -2.275310e-03   2.873096e+00   8.606012e+00
        Br   2.918703e+00   8.538441e-02   8.623825e+00
        Br   2.912877e+00   2.847794e+00   5.673486e+00
        Cs  -3.842022e-02  -3.093734e-02   5.725458e+00
        Sn   2.785757e+00   2.867626e+00   8.616033e+00
        Br  -2.275310e-03   8.629764e+00   2.849344e+00
        Br   2.918703e+00   5.842053e+00   2.867157e+00
        Br   2.912877e+00   8.604462e+00  -8.318184e-02
        Cs  -3.842022e-02   5.725731e+00  -3.120979e-02
        Sn   2.785757e+00   8.624294e+00   2.859364e+00
        Br  -2.275310e-03   8.629764e+00   8.606012e+00
        Br   2.918703e+00   5.842053e+00   8.623825e+00
        Br   2.912877e+00   8.604462e+00   5.673486e+00
        Cs  -3.842022e-02   5.725731e+00   5.725458e+00
        Sn   2.785757e+00   8.624294e+00   8.616033e+00
        Br   5.754393e+00   2.873096e+00   2.849344e+00
        Br   8.675371e+00   8.538441e-02   2.867157e+00
        Br   8.669545e+00   2.847794e+00  -8.318184e-02
        Cs   5.718248e+00  -3.093734e-02  -3.120979e-02
        Sn   8.542425e+00   2.867626e+00   2.859364e+00
        Br   5.754393e+00   2.873096e+00   8.606012e+00
        Br   8.675371e+00   8.538441e-02   8.623825e+00
        Br   8.669545e+00   2.847794e+00   5.673486e+00
        Cs   5.718248e+00  -3.093734e-02   5.725458e+00
        Sn   8.542425e+00   2.867626e+00   8.616033e+00
        Br   5.754393e+00   8.629764e+00   2.849344e+00
        Br   8.675371e+00   5.842053e+00   2.867157e+00
        Br   8.669545e+00   8.604462e+00  -8.318184e-02
        Cs   5.718248e+00   5.725731e+00  -3.120979e-02
        Sn   8.542425e+00   8.624294e+00   2.859364e+00
        Br   5.754393e+00   8.629764e+00   8.606012e+00
        Br   8.675371e+00   5.842053e+00   8.623825e+00
        Br   8.669545e+00   8.604462e+00   5.673486e+00
        Cs   5.718248e+00   5.725731e+00   5.725458e+00
        Sn   8.542425e+00   8.624294e+00   8.616033e+00
PRIMCOORD         14
        40         1