ANIMSTEPS 3750
CRYSTAL
PRIMVEC
   5.756668e+00   0.000000e+00  -0.000000e+00
  -0.000000e+00   5.756668e+00  -0.000000e+00
  -0.000000e+00   0.000000e+00   5.756668e+00
PRIMCOORD          1
         5         1
        Br   0.000000e+00   2.878334e+00   2.878334e+00   1.694478e-06  -4.693466e-06   7.443519e-05
        Br   2.878334e+00   0.000000e+00   2.878334e+00   1.691483e-06  -4.693466e-06   7.443519e-05
        Br   2.878334e+00   2.878334e+00   0.000000e+00   1.691483e-06  -4.693466e-06   7.470736e-05
        Cs   0.000000e+00   0.000000e+00   0.000000e+00   1.692783e-06  -4.693466e-06   7.455336e-05
        Sn   2.878334e+00   2.878334e+00   2.878334e+00   1.693232e-06  -4.693466e-06   7.459413e-05
PRIMCOORD          2
         5         1
        Br   0.000000e+00   2.878334e+00   2.878334e+00   1.749700e-05   7.252665e-05   4.164314e-06
        Br   2.878334e+00   0.000000e+00   2.878334e+00   1.744434e-05   7.252665e-05   4.164314e-06
        Br   2.878334e+00   2.878334e+00   0.000000e+00   1.744434e-05   7.252665e-05   4.176597e-06
        Cs   0.000000e+00   0.000000e+00   0.000000e+00   1.746720e-05   7.252665e-05   4.169648e-06
        Sn   2.878334e+00   2.878334e+00   2.878334e+00   1.747509e-05   7.252665e-05   4.171487e-06
PRIMCOORD          3
         5         1
        Br   0.000000e+00   2.878334e+00   2.878334e+00   7.275994e-05  -1.733308e-05  -2.734923e-06
        Br   2.878334e+00   0.000000e+00   2.878334e+00   7.252963e-05  -1.733308e-05  -2.734923e-06
        Br   2.878334e+00   2.878334e+00   0.000000e+00   7.252963e-05  -1.733308e-05  -2.747733e-06
        Cs   0.000000e+00   0.000000e+00   0.000000e+00   7.262963e-05  -1.733308e-05  -2.740485e-06
        Sn   2.878334e+00   2.878334e+00   2.878334e+00   7.266412e-05  -1.733308e-05  -2.742403e-06
PRIMCOORD          4
         5         1
        Br   0.000000e+00   2.878334e+00   2.878334e+00   9.161918e-06  -6.935091e-10   9.121372e-05
        Br   2.878334e+00   0.000000e+00   2.878334e+00  -6.678698e-06  -6.935091e-10   9.121372e-05
        Br   2.878334e+00   2.878334e+00   0.000000e+00  -6.678698e-06  -6.935091e-10  -1.251362e-04
        Cs   0.000000e+00   0.000000e+00   0.000000e+00   1.991010e-07  -6.935091e-10  -2.722737e-06
        Sn   2.878334e+00   2.878334e+00   2.878334e+00   2.571621e-06  -6.935091e-10  -3.512644e-05
PRIMCOORD          5
         5         1
        Br   0.000000e+00   2.878334e+00   2.878334e+00  -1.251489e-04  -9.138660e-10   6.677578e-06
        Br   2.878334e+00   0.000000e+00   2.878334e+00   9.120107e-05  -9.138660e-10   6.677578e-06
        Br   2.878334e+00   2.878334e+00   0.000000e+00   9.120107e-05  -9.138660e-10  -9.163041e-06
        Cs   0.000000e+00   0.000000e+00   0.000000e+00  -2.735411e-06  -9.138660e-10  -2.002223e-07
        Sn   2.878334e+00   2.878334e+00   2.878334e+00  -3.513912e-05  -9.138660e-10  -2.572743e-06
PRIMCOORD          6
         5         1
        Br   0.000000e+00   2.878334e+00   2.878334e+00   4.498959e-19  -1.047614e-04  -3.493528e-19
        Br   2.878334e+00   0.000000e+00   2.878334e+00  -2.155003e-19   8.489198e-05  -6.615357e-20
        Br   2.878334e+00   2.878334e+00   0.000000e+00  -3.004451e-19  -1.047614e-04   7.458536e-19
        Cs   0.000000e+00   0.000000e+00   0.000000e+00   1.463560e-19   3.135658e-05   3.465205e-19
        Sn   2.878334e+00   2.878334e+00   2.878334e+00   2.166864e-19   4.878195e-05   4.032444e-19
PRIMCOORD          7
         5         1
        Br   0.000000e+00   2.878334e+00   2.878334e+00  -5.971714e-20   5.103710e-05   1.202556e-04
        Br   2.878334e+00   0.000000e+00   2.878334e+00   9.874945e-06   5.368077e-20  -1.202556e-04
        Br   2.878334e+00   2.878334e+00   0.000000e+00  -9.874945e-06  -5.103710e-05  -1.869026e-19
        Cs   0.000000e+00   0.000000e+00   0.000000e+00  -2.886026e-19   8.684138e-20   3.958399e-19
        Sn   2.878334e+00   2.878334e+00   2.878334e+00  -2.497675e-20   8.247711e-20  -2.522300e-20
PRIMCOORD          8
         5         1
        Br   0.000000e+00   2.878334e+00   2.878334e+00   6.368738e-20  -1.205975e-04   5.118547e-05
        Br   2.878334e+00   0.000000e+00   2.878334e+00  -3.993028e-08   2.280015e-19  -5.118547e-05
        Br   2.878334e+00   2.878334e+00   0.000000e+00   3.993028e-08   1.205975e-04  -1.047573e-19
        Cs   0.000000e+00   0.000000e+00   0.000000e+00  -2.476293e-20   8.562368e-20  -6.392109e-20
        Sn   2.878334e+00   2.878334e+00   2.878334e+00   5.847574e-20   1.085221e-19  -1.770362e-20
PRIMCOORD          9
         5         1
        Br   0.000000e+00   2.878334e+00   2.878334e+00  -8.587601e-20   3.894772e-06   9.074518e-06
        Br   2.878334e+00   0.000000e+00   2.878334e+00  -1.306377e-04   1.401043e-21  -9.074518e-06
        Br   2.878334e+00   2.878334e+00   0.000000e+00   1.306377e-04  -3.894772e-06  -8.154852e-20
        Cs   0.000000e+00   0.000000e+00   0.000000e+00  -7.822542e-20   1.211147e-19  -1.684836e-19
        Sn   2.878334e+00   2.878334e+00   2.878334e+00   2.738847e-20  -1.060500e-20  -4.580383e-20
PRIMCOORD         10
         5         1
        Br   0.000000e+00   2.878334e+00   2.878334e+00  -5.901721e-08  -9.692326e-20  -4.346282e-05
        Br   2.878334e+00   0.000000e+00   2.878334e+00  -5.282519e-08   1.289169e-20  -4.346282e-05
        Br   2.878334e+00   2.878334e+00   0.000000e+00  -5.282519e-08   2.726269e-19  -4.855741e-05
        Cs   0.000000e+00   0.000000e+00   0.000000e+00   1.490882e-07  -2.862138e-19   1.226648e-04
        Sn   2.878334e+00   2.878334e+00   2.878334e+00  -5.608383e-08   9.432336e-20  -4.614392e-05
PRIMCOORD         11
         5         1
        Br   0.000000e+00   2.878334e+00   2.878334e+00  -4.855741e-05   1.269279e-19   5.282519e-08
        Br   2.878334e+00   0.000000e+00   2.878334e+00  -4.346282e-05   7.739168e-21   5.282519e-08
        Br   2.878334e+00   2.878334e+00   0.000000e+00  -4.346282e-05   2.064037e-20   5.901721e-08
        Cs   0.000000e+00   0.000000e+00   0.000000e+00   1.226648e-04  -7.232308e-20  -1.490882e-07
        Sn   2.878334e+00   2.878334e+00   2.878334e+00  -4.614392e-05   3.732151e-20   5.608383e-08
PRIMCOORD         12
         5         1
        Br   0.000000e+00   2.878334e+00   2.878334e+00  -5.001918e-20  -1.678180e-05  -1.084289e-19
        Br   2.878334e+00   0.000000e+00   2.878334e+00   9.505514e-20  -4.864756e-05  -5.808419e-20
        Br   2.878334e+00   2.878334e+00   0.000000e+00  -1.070667e-19  -1.678180e-05  -1.897279e-19
        Cs   0.000000e+00   0.000000e+00   0.000000e+00   7.749168e-20   1.171923e-04   2.109038e-19
        Sn   2.878334e+00   2.878334e+00   2.878334e+00  -4.868892e-20  -7.587425e-05  -1.674233e-19
PRIMCOORD         13
         5         1
        Br   0.000000e+00   2.878334e+00   2.878334e+00   5.793643e-06  -3.826949e-22  -3.661279e-05
        Br   2.878334e+00   0.000000e+00   2.878334e+00   2.061587e-06  -4.003750e-20  -3.661279e-05
        Br   2.878334e+00   2.878334e+00   0.000000e+00   2.061587e-06   3.863052e-20  -1.028923e-04
        Cs   0.000000e+00   0.000000e+00   0.000000e+00   1.042861e-08   2.777479e-22  -1.852070e-07
        Sn   2.878334e+00   2.878334e+00   2.878334e+00  -6.686710e-06  -4.359820e-20   1.187528e-04
PRIMCOORD         14
         5         1
        Br   0.000000e+00   2.878334e+00   2.878334e+00   1.028923e-04  -3.599679e-20   2.061587e-06
        Br   2.878334e+00   0.000000e+00   2.878334e+00   3.661279e-05   2.208637e-20   2.061587e-06
        Br   2.878334e+00   2.878334e+00   0.000000e+00   3.661279e-05  -8.011628e-21   5.793643e-06
        Cs   0.000000e+00   0.000000e+00   0.000000e+00   1.852070e-07   1.062853e-21   1.042861e-08
        Sn   2.878334e+00   2.878334e+00   2.878334e+00  -1.187528e-04   2.950545e-20  -6.686710e-06
PRIMCOORD         15
         5         1
        Br   0.000000e+00   2.878334e+00   2.878334e+00  -1.222569e-20  -1.801534e-05   1.120091e-20
        Br   2.878334e+00   0.000000e+00   2.878334e+00   6.042513e-21  -1.384616e-04   1.568872e-20
        Br   2.878334e+00   2.878334e+00   0.000000e+00  -6.954556e-22  -1.801534e-05   2.200259e-20
        Cs   0.000000e+00   0.000000e+00   0.000000e+00   5.480297e-22   1.836884e-05   2.175878e-21
        Sn   2.878334e+00   2.878334e+00   2.878334e+00   2.150393e-21   9.688511e-05   1.003723e-21
PRIMCOORD         16
         5         1
        Br   0.000000e+00   2.878334e+00   2.878334e+00  -7.472025e-05   1.356897e-18  -1.604829e-06
        Br   2.878334e+00   0.000000e+00   2.878334e+00  -7.460971e-05   1.767515e-18  -1.601913e-06
        Br   2.878334e+00   2.878334e+00   0.000000e+00  -7.471120e-05   1.509977e-18  -1.605024e-06
        Cs   0.000000e+00   0.000000e+00   0.000000e+00  -7.470432e-05   1.623552e-18  -1.603944e-06
        Sn   2.878334e+00   2.878334e+00   2.878334e+00  -7.469333e-05   1.718844e-18  -1.604445e-06
PRIMCOORD         17
         5         1
        Br   0.000000e+00   2.878334e+00   2.878334e+00  -1.604859e-06   1.677250e-18   7.471887e-05
        Br   2.878334e+00   0.000000e+00   2.878334e+00  -1.602485e-06   1.361911e-18   7.458310e-05
        Br   2.878334e+00   2.878334e+00   0.000000e+00  -1.604664e-06   1.817120e-18   7.472793e-05
        Cs   0.000000e+00   0.000000e+00   0.000000e+00  -1.604517e-06   1.484203e-18   7.467767e-05
        Sn   2.878334e+00   2.878334e+00   2.878334e+00  -1.604281e-06   1.435145e-18   7.470100e-05
PRIMCOORD         18
         5         1
        Br   0.000000e+00   2.878334e+00   2.878334e+00   6.716307e-06   1.790736e-17   9.126296e-05
        Br   2.878334e+00   0.000000e+00   2.878334e+00  -4.886405e-06   1.839206e-17   9.120128e-05
        Br   2.878334e+00   2.878334e+00   0.000000e+00  -4.889766e-06   1.771264e-17  -1.253537e-04
        Cs   0.000000e+00   0.000000e+00   0.000000e+00   1.495578e-07   1.818691e-17  -2.791391e-06
        Sn   2.878334e+00   2.878334e+00   2.878334e+00   1.889414e-06   1.830824e-17  -3.526416e-05
PRIMCOORD         19
         5         1
        Br   0.000000e+00   2.878334e+00   2.878334e+00  -1.253537e-04   1.787174e-17   4.889767e-06
        Br   2.878334e+00   0.000000e+00   2.878334e+00   9.120021e-05   1.795013e-17   4.886462e-06
        Br   2.878334e+00   2.878334e+00   0.000000e+00   9.126296e-05   1.796494e-17  -6.716308e-06
        Cs   0.000000e+00   0.000000e+00   0.000000e+00  -2.791359e-06   1.797325e-17  -1.495596e-07
        Sn   2.878334e+00   2.878334e+00   2.878334e+00  -3.526416e-05   1.792738e-17  -1.889414e-06
PRIMCOORD         20
         5         1
        Br   0.000000e+00   2.878334e+00   2.878334e+00  -3.003285e-17  -7.544123e-05   2.474640e-17
        Br   2.878334e+00   0.000000e+00   2.878334e+00   1.893509e-17  -7.259160e-05   2.454355e-17
        Br   2.878334e+00   2.878334e+00   0.000000e+00   1.908600e-17  -7.544123e-05  -3.053460e-17
        Cs   0.000000e+00   0.000000e+00   0.000000e+00  -2.146420e-18  -7.373432e-05   6.704736e-19
        Sn   2.878334e+00   2.878334e+00   2.878334e+00  -9.628821e-18  -7.333163e-05  -7.575936e-18
PRIMCOORD         21
         5         1
        Br   0.000000e+00   2.878334e+00   2.878334e+00  -5.255634e-19   1.037548e-04   5.373321e-19
        Br   2.878334e+00   0.000000e+00   2.878334e+00   9.410758e-20  -8.534352e-05   4.189076e-19
        Br   2.878334e+00   2.878334e+00   0.000000e+00   1.983642e-19   1.037548e-04  -9.150888e-19
        Cs   0.000000e+00   0.000000e+00   0.000000e+00  -1.587470e-19  -3.274736e-05  -1.903476e-19
        Sn   2.878334e+00   2.878334e+00   2.878334e+00  -2.962724e-19  -4.935200e-05  -4.000952e-19
PRIMCOORD         22
         5         1
        Br   0.000000e+00   2.878334e+00   2.878334e+00  -8.279013e-10  -1.724364e-16  -1.310171e-04
        Br   2.878334e+00   0.000000e+00   2.878334e+00   2.288143e-06  -6.727789e-20   1.308961e-04
        Br   2.878334e+00   2.878334e+00   0.000000e+00  -2.290278e-06   1.724463e-16  -4.736072e-08
        Cs   0.000000e+00   0.000000e+00   0.000000e+00   3.392816e-09  -4.250047e-20   1.940903e-07
        Sn   2.878334e+00   2.878334e+00   2.878334e+00  -6.020017e-10  -5.342261e-20  -3.443796e-08
PRIMCOORD         23
         5         1
        Br   0.000000e+00   2.878334e+00   2.878334e+00   4.736071e-08  -3.504577e-17  -2.290278e-06
        Br   2.878334e+00   0.000000e+00   2.878334e+00  -1.308950e-04   1.190234e-20   2.288163e-06
        Br   2.878334e+00   2.878334e+00   0.000000e+00   1.310171e-04   3.498594e-17  -8.279013e-10
        Cs   0.000000e+00   0.000000e+00   0.000000e+00  -1.940886e-07   1.102905e-19   3.392846e-09
        Sn   2.878334e+00   2.878334e+00   2.878334e+00   3.443796e-08  -1.929401e-20  -6.020017e-10
PRIMCOORD         24
         5         1
        Br   0.000000e+00   2.878334e+00   2.878334e+00   1.296567e-20  -1.307551e-04   1.727776e-16
        Br   2.878334e+00   0.000000e+00   2.878334e+00   3.063234e-17   1.613645e-19  -1.720536e-16
        Br   2.878334e+00   2.878334e+00   0.000000e+00  -3.118133e-17   1.307551e-04   1.881547e-20
        Cs   0.000000e+00   0.000000e+00   0.000000e+00   1.693484e-19   1.763553e-19  -4.687202e-19
        Sn   2.878334e+00   2.878334e+00   2.878334e+00   4.139106e-21  -3.065200e-21   2.859811e-20
PRIMCOORD         25
         5         1
        Br   0.000000e+00   2.878334e+00   2.878334e+00   2.673043e-06  -1.790325e-19  -4.323430e-05
        Br   2.878334e+00   0.000000e+00   2.878334e+00   2.403554e-06  -3.789859e-20  -4.356722e-05
        Br   2.878334e+00   2.878334e+00   0.000000e+00   2.383537e-06   2.170656e-19  -4.848556e-05
        Cs   0.000000e+00   0.000000e+00   0.000000e+00  -6.753013e-06   3.634582e-21   1.224063e-04
        Sn   2.878334e+00   2.878334e+00   2.878334e+00   2.540526e-06  -2.484486e-20  -4.608187e-05
PRIMCOORD         26
         5         1
        Br   0.000000e+00   2.878334e+00   2.878334e+00   4.847429e-05  -9.520461e-20   2.384092e-06
        Br   2.878334e+00   0.000000e+00   2.878334e+00   4.358722e-05   9.225218e-20   2.402451e-06
        Br   2.878334e+00   2.878334e+00   0.000000e+00   4.322424e-05   1.086513e-19   2.673665e-06
        Cs   0.000000e+00   0.000000e+00   0.000000e+00  -1.224625e-04  -3.215417e-19  -6.749914e-06
        Sn   2.878334e+00   2.878334e+00   2.878334e+00   4.607116e-05   1.711099e-19   2.541117e-06
PRIMCOORD         27
         5         1
        Br   0.000000e+00   2.878334e+00   2.878334e+00  -7.765920e-20   1.644441e-05  -1.333654e-19
        Br   2.878334e+00   0.000000e+00   2.878334e+00  -2.038311e-19   4.884615e-05  -7.800300e-20
        Br   2.878334e+00   2.878334e+00   0.000000e+00  -9.105481e-20   1.644441e-05   8.816332e-20
        Cs   0.000000e+00   0.000000e+00   0.000000e+00   3.217860e-19  -1.159255e-04   3.391715e-20
        Sn   2.878334e+00   2.878334e+00   2.878334e+00  -6.347473e-20   7.597034e-05   2.013885e-20
PRIMCOORD         28
         5         1
        Br   0.000000e+00   2.878334e+00   2.878334e+00   1.030399e-04  -2.504648e-20  -9.217984e-07
        Br   2.878334e+00   0.000000e+00   2.878334e+00   3.663013e-05   4.568300e-20  -9.214602e-07
        Br   2.878334e+00   2.878334e+00   0.000000e+00   3.664223e-05  -4.485694e-22  -2.592146e-06
        Cs   0.000000e+00   0.000000e+00   0.000000e+00   1.842431e-07  -1.094154e-20  -4.634782e-09
        Sn   2.878334e+00   2.878334e+00   2.878334e+00  -1.188990e-04   4.785739e-20   2.991110e-06
PRIMCOORD         29
         5         1
        Br   0.000000e+00   2.878334e+00   2.878334e+00  -2.592144e-06   3.858968e-21  -3.664225e-05
        Br   2.878334e+00   0.000000e+00   2.878334e+00  -9.214934e-07  -2.666956e-20  -3.662881e-05
        Br   2.878334e+00   2.878334e+00   0.000000e+00  -9.217978e-07   4.543833e-20  -1.030399e-04
        Cs   0.000000e+00   0.000000e+00   0.000000e+00  -4.634949e-09  -4.149323e-21  -1.842364e-07
        Sn   2.878334e+00   2.878334e+00   2.878334e+00   2.991108e-06  -2.984735e-20   1.188991e-04
PRIMCOORD         30
         5         1
        Br   0.000000e+00   2.878334e+00   2.878334e+00  -1.337299e-20  -1.797896e-05   1.810514e-21
        Br   2.878334e+00   0.000000e+00   2.878334e+00   5.535993e-21  -1.378842e-04  -1.974095e-21
        Br   2.878334e+00   2.878334e+00   0.000000e+00   3.403953e-24  -1.797896e-05  -8.536834e-22
        Cs   0.000000e+00   0.000000e+00   0.000000e+00  -4.739384e-20   1.828064e-05  -1.128575e-20
        Sn   2.878334e+00   2.878334e+00   2.878334e+00  -1.062759e-20   9.669024e-05   5.591824e-21
PRIMCOORD         31
         5         1
        Br   0.000000e+00   2.878334e+00   2.878334e+00  -7.201758e-05  -2.687100e-19   4.717234e-07
        Br   2.878334e+00   0.000000e+00   2.878334e+00  -7.036583e-05  -1.667369e-19   4.683066e-07
        Br   2.878334e+00   2.878334e+00   0.000000e+00  -7.216075e-05  -1.207346e-19   4.707875e-07
        Cs   0.000000e+00   0.000000e+00   0.000000e+00  -7.064712e-05  -3.050024e-19   4.701787e-07
        Sn   2.878334e+00   2.878334e+00   2.878334e+00  -7.198793e-05  -1.626013e-19   4.705937e-07
PRIMCOORD         32
         5         1
        Br   0.000000e+00   2.878334e+00   2.878334e+00  -4.537477e-07   8.619954e-19  -7.487062e-05
        Br   2.878334e+00   0.000000e+00   2.878334e+00  -4.433409e-07   1.121672e-18  -7.432833e-05
        Br   2.878334e+00   2.878334e+00   0.000000e+00  -4.546498e-07   7.381501e-19  -7.472208e-05
        Cs   0.000000e+00   0.000000e+00   0.000000e+00  -4.451131e-07   1.011769e-18  -7.462545e-05
        Sn   2.878334e+00   2.878334e+00   2.878334e+00  -4.535609e-07   1.073757e-18  -7.469132e-05
PRIMCOORD         33
         5         1
        Br   0.000000e+00   2.878334e+00   2.878334e+00  -9.166924e-06  -3.872028e-18  -9.117560e-05
        Br   2.878334e+00   0.000000e+00   2.878334e+00   6.655474e-06  -4.258591e-18  -9.092911e-05
        Br   2.878334e+00   2.878334e+00   0.000000e+00   6.677502e-06  -3.649959e-18   1.251665e-04
        Cs   0.000000e+00   0.000000e+00   0.000000e+00  -2.024419e-07  -4.100312e-18   2.765823e-06
        Sn   2.878334e+00   2.878334e+00   2.878334e+00  -2.584180e-06  -4.215343e-18   3.528477e-05
PRIMCOORD         34
         5         1
        Br   0.000000e+00   2.878334e+00   2.878334e+00   1.251611e-04  -3.591044e-18  -6.677791e-06
        Br   2.878334e+00   0.000000e+00   2.878334e+00  -9.087089e-05  -3.837095e-18  -6.659737e-06
        Br   2.878334e+00   2.878334e+00   0.000000e+00  -9.117166e-05  -3.660819e-18   9.167320e-06
        Cs   0.000000e+00   0.000000e+00   0.000000e+00   2.764053e-06  -3.776751e-18   2.025716e-07
        Sn   2.878334e+00   2.878334e+00   2.878334e+00   3.528325e-05  -3.807579e-18   2.584292e-06
PRIMCOORD         35
         5         1
        Br   0.000000e+00   2.878334e+00   2.878334e+00   5.558697e-18   7.919497e-05  -4.430769e-18
        Br   2.878334e+00   0.000000e+00   2.878334e+00  -4.345195e-18   6.872671e-05  -4.183393e-18
        Br   2.878334e+00   2.878334e+00   0.000000e+00  -4.450527e-18   7.919497e-05   8.234481e-18
        Cs   0.000000e+00   0.000000e+00   0.000000e+00  -1.382485e-19   7.312571e-05   1.155894e-18
        Sn   2.878334e+00   2.878334e+00   2.878334e+00   1.415209e-18   7.098536e-05   3.039810e-18
PRIMCOORD         36
         5         1
        Br   0.000000e+00   2.878334e+00   2.878334e+00  -2.638933e-19   1.010050e-04   5.781817e-19
        Br   2.878334e+00   0.000000e+00   2.878334e+00   3.924323e-19  -8.681098e-05   2.315890e-19
        Br   2.878334e+00   2.878334e+00   0.000000e+00   4.304693e-19   1.010050e-04  -8.445422e-19
        Cs   0.000000e+00   0.000000e+00   0.000000e+00  -2.035341e-19  -3.696175e-05  -2.855043e-19
        Sn   2.878334e+00   2.878334e+00   2.878334e+00  -5.530855e-21  -5.095604e-05  -3.897764e-19
PRIMCOORD         37
         5         1
        Br   0.000000e+00   2.878334e+00   2.878334e+00   1.767269e-09   2.053444e-17   1.311122e-04
        Br   2.878334e+00   0.000000e+00   2.878334e+00  -1.204870e-06   3.435588e-20  -1.306243e-04
        Br   2.878334e+00   2.878334e+00   0.000000e+00   1.209178e-06  -2.074812e-17   1.916264e-07
        Cs   0.000000e+00   0.000000e+00   0.000000e+00  -7.192802e-09   3.318244e-19  -7.797977e-07
        Sn   2.878334e+00   2.878334e+00   2.878334e+00   1.290997e-09  -3.410599e-20   1.399839e-07
PRIMCOORD         38
         5         1
        Br   0.000000e+00   2.878334e+00   2.878334e+00  -1.916258e-07   6.175171e-17   1.209182e-06
        Br   2.878334e+00   0.000000e+00   2.878334e+00   1.306446e-04   2.499478e-20  -1.204683e-06
        Br   2.878334e+00   2.878334e+00   0.000000e+00  -1.311118e-04  -6.172056e-17   1.767274e-09
        Cs   0.000000e+00   0.000000e+00   0.000000e+00   7.799189e-07  -1.622331e-19  -7.191684e-09
        Sn   2.878334e+00   2.878334e+00   2.878334e+00  -1.399834e-07   5.628794e-20   1.291001e-09
PRIMCOORD         39
         5         1
        Br   0.000000e+00   2.878334e+00   2.878334e+00  -3.186339e-20  -8.146769e-09  -7.433315e-19
        Br   2.878334e+00   0.000000e+00   2.878334e+00  -4.493238e-18   2.047761e-20  -6.186868e-19
        Br   2.878334e+00   2.878334e+00   0.000000e+00   8.369207e-18   8.146769e-09  -4.886739e-21
        Cs   0.000000e+00   0.000000e+00   0.000000e+00   6.139300e-20   3.328475e-20  -8.751684e-21
        Sn   2.878334e+00   2.878334e+00   2.878334e+00  -3.639926e-20   3.235263e-21  -4.507785e-21
PRIMCOORD         40
         5         1
        Br   0.000000e+00   2.878334e+00   2.878334e+00   1.528590e-07   9.116665e-20   4.280605e-05
        Br   2.878334e+00   0.000000e+00   2.878334e+00   1.380051e-07   2.715304e-20   4.414886e-05
        Br   2.878334e+00   2.878334e+00   0.000000e+00   1.347357e-07  -2.554761e-19   4.856392e-05
        Cs   0.000000e+00   0.000000e+00   0.000000e+00  -3.825231e-07   1.229999e-19  -1.223719e-04
        Sn   2.878334e+00   2.878334e+00   2.878334e+00   1.453405e-07  -2.121891e-20   4.617525e-05
PRIMCOORD         41
         5         1
        Br   0.000000e+00   2.878334e+00   2.878334e+00  -4.828685e-05   2.327119e-19   1.355088e-07
        Br   2.878334e+00   0.000000e+00   2.878334e+00  -4.359463e-05  -1.973389e-19   1.397596e-07
        Br   2.878334e+00   2.878334e+00   0.000000e+00  -4.256183e-05   1.678300e-19   1.537361e-07
        Cs   0.000000e+00   0.000000e+00   0.000000e+00   1.208357e-04   9.474648e-20  -3.873862e-07
        Sn   2.878334e+00   2.878334e+00   2.878334e+00  -4.591181e-05  -1.549220e-19   1.461745e-07
PRIMCOORD         42
         5         1
        Br   0.000000e+00   2.878334e+00   2.878334e+00  -6.369611e-20  -1.566101e-05  -2.751761e-19
        Br   2.878334e+00   0.000000e+00   2.878334e+00   1.839283e-19  -5.056459e-05   3.117027e-19
        Br   2.878334e+00   2.878334e+00   0.000000e+00  -1.051952e-19  -1.566101e-05  -1.491470e-19
        Cs   0.000000e+00   0.000000e+00   0.000000e+00  -1.624884e-19   1.147130e-04   7.444247e-20
        Sn   2.878334e+00   2.878334e+00   2.878334e+00  -4.780962e-20  -7.741711e-05  -1.081200e-19
PRIMCOORD         43
         5         1
        Br   0.000000e+00   2.878334e+00   2.878334e+00   1.031154e-04  -2.821731e-20  -4.786523e-07
        Br   2.878334e+00   0.000000e+00   2.878334e+00   3.654724e-05   2.866476e-20  -4.779487e-07
        Br   2.878334e+00   2.878334e+00   0.000000e+00   3.659994e-05  -2.215633e-21  -1.348539e-06
        Cs   0.000000e+00   0.000000e+00   0.000000e+00   1.806839e-07   1.952616e-21  -2.362905e-09
        Sn   2.878334e+00   2.878334e+00   2.878334e+00  -1.189141e-04   2.438580e-20   1.555153e-06
PRIMCOORD         44
         5         1
        Br   0.000000e+00   2.878334e+00   2.878334e+00  -1.348538e-06   2.705343e-21  -3.659995e-05
        Br   2.878334e+00   0.000000e+00   2.878334e+00  -4.779630e-07  -3.782900e-20  -3.654614e-05
        Br   2.878334e+00   2.878334e+00   0.000000e+00  -4.786522e-07   4.467107e-20  -1.031154e-04
        Cs   0.000000e+00   0.000000e+00   0.000000e+00  -2.362975e-09  -2.422681e-22  -1.806785e-07
        Sn   2.878334e+00   2.878334e+00   2.878334e+00   1.555153e-06  -4.263829e-20   1.189141e-04
PRIMCOORD         45
         5         1
        Br   0.000000e+00   2.878334e+00   2.878334e+00  -9.633354e-21  -1.787807e-05  -2.399775e-20
        Br   2.878334e+00   0.000000e+00   2.878334e+00   7.560982e-21  -1.362510e-04   1.984142e-20
        Br   2.878334e+00   2.878334e+00   0.000000e+00   7.279978e-22  -1.787807e-05  -1.397105e-20
        Cs   0.000000e+00   0.000000e+00   0.000000e+00  -6.959830e-20   1.802982e-05   6.145109e-23
        Sn   2.878334e+00   2.878334e+00   2.878334e+00  -1.527987e-20   9.614996e-05   6.861497e-21
PRIMCOORD         46
         5         1
        Br   0.000000e+00   2.878334e+00   2.878334e+00  -4.691726e-06   2.218929e-20  -9.164093e-07
        Br   2.878334e+00   0.000000e+00   2.878334e+00  -1.175367e-05  -1.768271e-19  -9.015615e-07
        Br   2.878334e+00   2.878334e+00   0.000000e+00  -4.717496e-06   8.041905e-20  -9.114032e-07
        Cs   0.000000e+00   0.000000e+00   0.000000e+00  -1.185418e-05  -1.568636e-19  -9.092709e-07
        Sn   2.878334e+00   2.878334e+00   2.878334e+00  -4.689385e-06   2.789639e-20  -9.109484e-07
PRIMCOORD         47
         5         1
        Br   0.000000e+00   2.878334e+00   2.878334e+00  -5.725683e-08  -3.232359e-19   7.509220e-05
        Br   2.878334e+00   0.000000e+00   2.878334e+00  -1.434393e-07  -5.734739e-19   7.387555e-05
        Br   2.878334e+00   2.878334e+00   0.000000e+00  -5.757133e-08  -1.847076e-19   7.468200e-05
        Cs   0.000000e+00   0.000000e+00   0.000000e+00  -1.446659e-07  -4.682585e-19   7.450726e-05
        Sn   2.878334e+00   2.878334e+00   2.878334e+00  -5.722826e-08  -5.320040e-19   7.464473e-05
PRIMCOORD         48
         5         1
        Br   0.000000e+00   2.878334e+00   2.878334e+00  -6.522040e-06  -1.253102e-18  -9.133940e-05
        Br   2.878334e+00   0.000000e+00   2.878334e+00   4.728110e-06  -1.678710e-18  -9.078374e-05
        Br   2.878334e+00   2.878334e+00   0.000000e+00   4.755119e-06  -1.063251e-18   1.252796e-04
        Cs   0.000000e+00   0.000000e+00   0.000000e+00  -1.423101e-07  -1.478171e-18   2.732476e-06
        Sn   2.878334e+00   2.878334e+00   2.878334e+00  -1.844952e-06  -1.587341e-18   3.543903e-05
PRIMCOORD         49
         5         1
        Br   0.000000e+00   2.878334e+00   2.878334e+00   1.252785e-04  -1.415939e-18  -4.755161e-06
        Br   2.878334e+00   0.000000e+00   2.878334e+00  -9.081978e-05  -1.618163e-18  -4.726233e-06
        Br   2.878334e+00   2.878334e+00   0.000000e+00  -9.133859e-05  -1.495708e-18   6.522098e-06
        Cs   0.000000e+00   0.000000e+00   0.000000e+00   2.733561e-06  -1.548453e-18   1.422536e-07
        Sn   2.878334e+00   2.878334e+00   2.878334e+00   3.543872e-05  -1.613166e-18   1.844968e-06
PRIMCOORD         50
         5         1
        Br   0.000000e+00   2.878334e+00   2.878334e+00   3.420825e-19   8.122701e-05  -1.442066e-18
        Br   2.878334e+00   0.000000e+00   2.878334e+00  -3.719035e-18   5.898539e-05  -1.349279e-18
        Br   2.878334e+00   2.878334e+00   0.000000e+00  -3.913428e-18   8.122701e-05   3.021238e-18
        Cs   0.000000e+00   0.000000e+00   0.000000e+00  -1.757786e-18   6.767929e-05   5.235864e-19
        Sn   2.878334e+00   2.878334e+00   2.878334e+00  -1.386409e-18   6.443093e-05   1.196113e-18
PRIMCOORD         51
         5         1
        Br   0.000000e+00   2.878334e+00   2.878334e+00  -1.720262e-19   9.590737e-05   3.742944e-19
        Br   2.878334e+00   0.000000e+00   2.878334e+00   3.949776e-19  -8.730342e-05   2.581012e-19
        Br   2.878334e+00   2.878334e+00   0.000000e+00   4.605799e-19   9.590737e-05  -7.415161e-19
        Cs   0.000000e+00   0.000000e+00   0.000000e+00  -2.165503e-19  -4.306993e-05  -2.860041e-19
        Sn   2.878334e+00   2.878334e+00   2.878334e+00   4.453965e-20  -5.251560e-05  -3.666311e-19
PRIMCOORD         52
         5         1
        Br   0.000000e+00   2.878334e+00   2.878334e+00   9.483160e-09   1.377498e-17   1.312229e-04
        Br   2.878334e+00   0.000000e+00   2.878334e+00  -2.815402e-06   1.571832e-19  -1.301109e-04
        Br   2.878334e+00   2.878334e+00   0.000000e+00   2.833026e-06  -1.377498e-17   4.392504e-07
        Cs   0.000000e+00   0.000000e+00   0.000000e+00  -3.823198e-08  -1.266978e-19  -1.766852e-06
        Sn   2.878334e+00   2.878334e+00   2.878334e+00   6.979635e-09   1.901326e-19   3.232896e-07
PRIMCOORD         53
         5         1
        Br   0.000000e+00   2.878334e+00   2.878334e+00   4.391286e-07   1.541483e-18  -2.833812e-06
        Br   2.878334e+00   0.000000e+00   2.878334e+00  -1.303704e-04   5.297549e-21   2.809797e-06
        Br   2.878334e+00   2.878334e+00   0.000000e+00   1.311865e-04  -1.598109e-18  -9.485791e-09
        Cs   0.000000e+00   0.000000e+00   0.000000e+00  -1.770376e-06   7.790630e-20   3.815588e-08
        Sn   2.878334e+00   2.878334e+00   2.878334e+00   3.232000e-07  -1.194030e-20  -6.981571e-09
PRIMCOORD         54
         5         1
        Br   0.000000e+00   2.878334e+00   2.878334e+00   1.409015e-19  -1.110965e-04   1.245905e-17
        Br   2.878334e+00   0.000000e+00   2.878334e+00  -1.027667e-17   1.759995e-19  -1.160925e-17
        Br   2.878334e+00   2.878334e+00   0.000000e+00   9.292239e-18   1.110965e-04   8.620654e-21
        Cs   0.000000e+00   0.000000e+00   0.000000e+00  -1.451429e-19   1.832626e-19  -3.351886e-19
        Sn   2.878334e+00   2.878334e+00   2.878334e+00   1.231473e-19   2.525753e-20   1.730446e-20
PRIMCOORD         55
         5         1
        Br   0.000000e+00   2.878334e+00   2.878334e+00  -8.399613e-06  -5.826027e-20  -4.132564e-05
        Br   2.878334e+00   0.000000e+00   2.878334e+00  -7.700214e-06   9.086463e-22  -4.433465e-05