ANIMSTEPS 3750
CRYSTAL
PRIMVEC
   5.756668e+00   0.000000e+00  -0.000000e+00
  -0.000000e+00   5.756668e+00  -0.000000e+00
  -0.000000e+00   0.000000e+00   5.756668e+00
PRIMCOORD          1
         5         1
        Br   0.000000e+00   2.878334e+00   2.878334e+00   5.421578e-05   3.538173e-05   3.744392e-05
        Br   2.878334e+00   0.000000e+00   2.878334e+00   5.396479e-05   3.538173e-05   3.744392e-05
        Br   2.878334e+00   2.878334e+00   0.000000e+00   5.396479e-05   3.538173e-05   3.760098e-05
        Cs   0.000000e+00   0.000000e+00   0.000000e+00   5.406311e-05   3.538173e-05   3.750544e-05
        Sn   2.878334e+00   2.878334e+00   2.878334e+00   5.412534e-05   3.538173e-05   3.754439e-05
PRIMCOORD          2
         5         1
        Br   0.000000e+00   2.878334e+00   2.878334e+00  -5.130475e-05   4.356507e-05   3.260205e-05
        Br   2.878334e+00   0.000000e+00   2.878334e+00  -5.106278e-05   4.356507e-05   3.260205e-05
        Br   2.878334e+00   2.878334e+00   0.000000e+00  -5.106278e-05   4.356507e-05   3.274278e-05
        Cs   0.000000e+00   0.000000e+00   0.000000e+00  -5.115756e-05   4.356507e-05   3.265717e-05
        Sn   2.878334e+00   2.878334e+00   2.878334e+00  -5.121756e-05   4.356507e-05   3.269207e-05
PRIMCOORD          3
         5         1
        Br   0.000000e+00   2.878334e+00   2.878334e+00  -6.422528e-06  -4.932339e-05   5.565215e-05
        Br   2.878334e+00   0.000000e+00   2.878334e+00  -6.391168e-06  -4.932339e-05   5.565215e-05
        Br   2.878334e+00   2.878334e+00   0.000000e+00  -6.391168e-06  -4.932339e-05   5.589812e-05
        Cs   0.000000e+00   0.000000e+00   0.000000e+00  -6.403452e-06  -4.932339e-05   5.574850e-05
        Sn   2.878334e+00   2.878334e+00   2.878334e+00  -6.411227e-06  -4.932339e-05   5.580949e-05
PRIMCOORD          4
         5         1
        Br   0.000000e+00   2.878334e+00   2.878334e+00   1.144982e-05  -2.034956e-09   8.951978e-05
        Br   2.878334e+00   0.000000e+00   2.878334e+00  -8.420901e-06  -2.034956e-09   8.951978e-05
        Br   2.878334e+00   2.878334e+00   0.000000e+00  -8.420901e-06  -2.034956e-09  -1.217739e-04
        Cs   0.000000e+00   0.000000e+00   0.000000e+00  -6.372934e-07  -2.034956e-09   6.753423e-06
        Sn   2.878334e+00   2.878334e+00   2.878334e+00   4.289624e-06  -2.034956e-09  -4.563655e-05
PRIMCOORD          5
         5         1
        Br   0.000000e+00   2.878334e+00   2.878334e+00  -1.217650e-04  -7.334180e-10   8.417604e-06
        Br   2.878334e+00   0.000000e+00   2.878334e+00   8.952868e-05  -7.334180e-10   8.417604e-06
        Br   2.878334e+00   2.878334e+00   0.000000e+00   8.952868e-05  -7.334180e-10  -1.145313e-05
        Cs   0.000000e+00   0.000000e+00   0.000000e+00   6.762342e-06  -7.334180e-10   6.339909e-07
        Sn   2.878334e+00   2.878334e+00   2.878334e+00  -4.562762e-05  -7.334180e-10  -4.292930e-06
PRIMCOORD          6
         5         1
        Br   0.000000e+00   2.878334e+00   2.878334e+00  -6.232068e-19   1.010150e-04   6.051350e-19
        Br   2.878334e+00   0.000000e+00   2.878334e+00   2.726090e-19  -9.058870e-05   5.149384e-19
        Br   2.878334e+00   2.878334e+00   0.000000e+00   3.777559e-19   1.010150e-04  -9.791263e-19
        Cs   0.000000e+00   0.000000e+00   0.000000e+00  -1.234351e-19  -1.298805e-05  -1.567583e-19
        Sn   2.878334e+00   2.878334e+00   2.878334e+00  -3.151457e-19  -6.046981e-05  -4.735751e-19
PRIMCOORD          7
         5         1
        Br   0.000000e+00   2.878334e+00   2.878334e+00  -5.069836e-20  -1.310082e-04  -7.452760e-07
        Br   2.878334e+00   0.000000e+00   2.878334e+00  -8.300014e-08   2.324949e-19   7.452760e-07
        Br   2.878334e+00   2.878334e+00   0.000000e+00   8.300014e-08   1.310082e-04   1.168971e-20
        Cs   0.000000e+00   0.000000e+00   0.000000e+00   3.348308e-19  -6.057962e-19  -2.808084e-19
        Sn   2.878334e+00   2.878334e+00   2.878334e+00  -5.977269e-20   3.647280e-19   1.933890e-20
PRIMCOORD          8
         5         1
        Br   0.000000e+00   2.878334e+00   2.878334e+00  -1.494552e-19   7.392185e-07  -1.307884e-04
        Br   2.878334e+00   0.000000e+00   2.878334e+00   7.587312e-06   2.739490e-21   1.307884e-04
        Br   2.878334e+00   2.878334e+00   0.000000e+00  -7.587312e-06  -7.392185e-07   3.458619e-19
        Cs   0.000000e+00   0.000000e+00   0.000000e+00   6.535070e-19  -1.329687e-19  -7.801319e-19
        Sn   2.878334e+00   2.878334e+00   2.878334e+00  -1.203135e-19   3.214783e-20   3.068601e-19
PRIMCOORD          9
         5         1
        Br   0.000000e+00   2.878334e+00   2.878334e+00   2.189531e-19  -1.260213e-07   7.586720e-06
        Br   2.878334e+00   0.000000e+00   2.878334e+00   1.307905e-04   3.240989e-20  -7.586720e-06
        Br   2.878334e+00   2.878334e+00   0.000000e+00  -1.307905e-04   1.260213e-07  -6.891451e-20
        Cs   0.000000e+00   0.000000e+00   0.000000e+00  -1.077643e-18  -2.855609e-19   4.515268e-19
        Sn   2.878334e+00   2.878334e+00   2.878334e+00   3.356917e-19   1.038029e-19  -6.803209e-20
PRIMCOORD         10
         5         1
        Br   0.000000e+00   2.878334e+00   2.878334e+00  -4.068788e-05   5.402297e-19   5.410116e-07
        Br   2.878334e+00   0.000000e+00   2.878334e+00  -5.094992e-05   1.374218e-19   5.410116e-07
        Br   2.878334e+00   2.878334e+00   0.000000e+00  -5.094992e-05  -1.757168e-19   4.320441e-07
        Cs   0.000000e+00   0.000000e+00   0.000000e+00   1.224932e-04  -5.497231e-19  -1.300693e-06
        Sn   2.878334e+00   2.878334e+00   2.878334e+00  -4.116956e-05   2.801742e-19   4.371588e-07
PRIMCOORD         11
         5         1
        Br   0.000000e+00   2.878334e+00   2.878334e+00  -4.320441e-07  -1.522517e-19  -5.094992e-05
        Br   2.878334e+00   0.000000e+00   2.878334e+00  -5.410116e-07   7.860130e-21  -5.094992e-05
        Br   2.878334e+00   2.878334e+00   0.000000e+00  -5.410116e-07   3.849015e-19  -4.068788e-05
        Cs   0.000000e+00   0.000000e+00   0.000000e+00   1.300693e-06  -2.808258e-19   1.224932e-04
        Sn   2.878334e+00   2.878334e+00   2.878334e+00  -4.371588e-07   9.384988e-20  -4.116956e-05
PRIMCOORD         12
         5         1
        Br   0.000000e+00   2.878334e+00   2.878334e+00   2.414520e-19   3.285537e-05   1.487431e-19
        Br   2.878334e+00   0.000000e+00   2.878334e+00  -7.647525e-20   3.572952e-05  -4.716004e-20
        Br   2.878334e+00   2.878334e+00   0.000000e+00   6.157576e-19   3.285537e-05   1.376564e-19
        Cs   0.000000e+00   0.000000e+00   0.000000e+00  -5.584748e-19  -1.207291e-04  -2.740462e-19
        Sn   2.878334e+00   2.878334e+00   2.878334e+00   2.163741e-19   6.689089e-05   1.142323e-19
PRIMCOORD         13
         5         1
        Br   0.000000e+00   2.878334e+00   2.878334e+00   4.862986e-06  -8.215782e-22  -3.031472e-05
        Br   2.878334e+00   0.000000e+00   2.878334e+00   1.341429e-06  -2.378494e-20  -3.031472e-05
        Br   2.878334e+00   2.878334e+00   0.000000e+00   1.341429e-06   4.130073e-20  -1.098977e-04
        Cs   0.000000e+00   0.000000e+00   0.000000e+00   8.778140e-08   8.666634e-21  -1.983756e-06
        Sn   2.878334e+00   2.878334e+00   2.878334e+00  -5.177408e-06  -3.296478e-20   1.170033e-04
PRIMCOORD         14
         5         1
        Br   0.000000e+00   2.878334e+00   2.878334e+00   1.098977e-04  -3.644043e-20   1.341429e-06
        Br   2.878334e+00   0.000000e+00   2.878334e+00   3.031472e-05   1.489126e-20   1.341429e-06
        Br   2.878334e+00   2.878334e+00   0.000000e+00   3.031472e-05  -6.311700e-21   4.862986e-06
        Cs   0.000000e+00   0.000000e+00   0.000000e+00   1.983756e-06   4.002520e-20   8.778140e-08
        Sn   2.878334e+00   2.878334e+00   2.878334e+00  -1.170033e-04   3.760634e-21  -5.177408e-06
PRIMCOORD         15
         5         1
        Br   0.000000e+00   2.878334e+00   2.878334e+00  -1.274439e-20  -1.725183e-05  -7.289321e-21
        Br   2.878334e+00   0.000000e+00   2.878334e+00   5.969468e-21  -1.387874e-04   8.273641e-21
        Br   2.878334e+00   2.878334e+00   0.000000e+00   7.099167e-24  -1.725183e-05   8.123527e-21
        Cs   0.000000e+00   0.000000e+00   0.000000e+00  -8.800949e-22   1.762089e-05  -4.430522e-21
        Sn   2.878334e+00   2.878334e+00   2.878334e+00   2.760070e-21   9.691397e-05   1.523764e-21
PRIMCOORD         16
         5         1
        Br   0.000000e+00   2.878334e+00   2.878334e+00  -6.860352e-05  -2.318712e-18  -2.231760e-05
        Br   2.878334e+00   0.000000e+00   2.878334e+00  -7.350517e-05  -2.115344e-18  -2.228560e-05
        Br   2.878334e+00   2.878334e+00   0.000000e+00  -7.361669e-05  -2.340785e-18  -2.079781e-05
        Cs   0.000000e+00   0.000000e+00   0.000000e+00  -7.161103e-05  -2.177758e-18  -2.171133e-05
        Sn   2.878334e+00   2.878334e+00   2.878334e+00  -7.039662e-05  -2.168071e-18  -2.134141e-05
PRIMCOORD         17
         5         1
        Br   0.000000e+00   2.878334e+00   2.878334e+00  -2.079775e-05  -3.874825e-18   7.361692e-05
        Br   2.878334e+00   0.000000e+00   2.878334e+00  -2.228372e-05  -4.141144e-18   7.351138e-05
        Br   2.878334e+00   2.878334e+00   0.000000e+00  -2.231753e-05  -3.792651e-18   6.860374e-05
        Cs   0.000000e+00   0.000000e+00   0.000000e+00  -2.170950e-05  -3.999561e-18   7.161707e-05
        Sn   2.878334e+00   2.878334e+00   2.878334e+00  -2.134134e-05  -4.121208e-18   7.039685e-05
PRIMCOORD         18
         5         1
        Br   0.000000e+00   2.878334e+00   2.878334e+00   6.805119e-06   1.795058e-17   8.779480e-05
        Br   2.878334e+00   0.000000e+00   2.878334e+00  -4.815545e-06   1.841117e-17   8.777245e-05
        Br   2.878334e+00   2.878334e+00   0.000000e+00  -4.817276e-06   1.779638e-17  -1.240232e-04
        Cs   0.000000e+00   0.000000e+00   0.000000e+00  -2.657525e-07   1.820708e-17   4.843844e-06
        Sn   2.878334e+00   2.878334e+00   2.878334e+00   2.618608e-06   1.834589e-17  -4.772411e-05
PRIMCOORD         19
         5         1
        Br   0.000000e+00   2.878334e+00   2.878334e+00  -1.240226e-04   3.755300e-18   4.817302e-06
        Br   2.878334e+00   0.000000e+00   2.878334e+00   8.776278e-05   4.573106e-18   4.816076e-06
        Br   2.878334e+00   2.878334e+00   0.000000e+00   8.779433e-05   3.853149e-18  -6.805156e-06
        Cs   0.000000e+00   0.000000e+00   0.000000e+00   4.843310e-06   4.246090e-18   2.657818e-07
        Sn   2.878334e+00   2.878334e+00   2.878334e+00  -4.772385e-05   4.429088e-18  -2.618622e-06
PRIMCOORD         20
         5         1
        Br   0.000000e+00   2.878334e+00   2.878334e+00  -2.099436e-18  -7.623163e-05   1.838582e-17
        Br   2.878334e+00   0.000000e+00   2.878334e+00   7.074532e-18  -7.294517e-05   1.826584e-17
        Br   2.878334e+00   2.878334e+00   0.000000e+00   7.171559e-18  -7.623163e-05  -3.359586e-17
        Cs   0.000000e+00   0.000000e+00   0.000000e+00   3.431052e-18  -7.451832e-05  -2.064544e-18
        Sn   2.878334e+00   2.878334e+00   2.878334e+00   1.212534e-18  -7.354148e-05  -1.489861e-17
PRIMCOORD         21
         5         1
        Br   0.000000e+00   2.878334e+00   2.878334e+00  -4.836405e-19   9.984573e-05   5.352448e-19
        Br   2.878334e+00   0.000000e+00   2.878334e+00   4.144176e-19  -9.152676e-05   4.018124e-19
        Br   2.878334e+00   2.878334e+00   0.000000e+00   4.970832e-19   9.984573e-05  -1.019207e-18
        Cs   0.000000e+00   0.000000e+00   0.000000e+00  -8.757422e-20  -1.454265e-05  -2.571917e-19
        Sn   2.878334e+00   2.878334e+00   2.878334e+00  -1.753643e-19  -6.147769e-05  -5.443421e-19
PRIMCOORD         22
         5         1
        Br   0.000000e+00   2.878334e+00   2.878334e+00  -6.362279e-19   1.310104e-04   1.433744e-16
        Br   2.878334e+00   0.000000e+00   2.878334e+00   4.879414e-16  -2.215919e-19  -1.430134e-16
        Br   2.878334e+00   2.878334e+00   0.000000e+00  -4.889357e-16  -1.310104e-04   1.875494e-19
        Cs   0.000000e+00   0.000000e+00   0.000000e+00   2.159086e-18   6.374928e-19  -4.204626e-19
        Sn   2.878334e+00   2.878334e+00   2.878334e+00  -6.279707e-19  -3.513957e-19   1.786624e-19
PRIMCOORD         23
         5         1
        Br   0.000000e+00   2.878334e+00   2.878334e+00  -8.701955e-10   1.407000e-16  -1.312318e-04
        Br   2.878334e+00   0.000000e+00   2.878334e+00   6.981826e-07  -7.117993e-21   1.307152e-04
        Br   2.878334e+00   2.878334e+00   0.000000e+00  -7.006246e-07  -1.405631e-16  -1.629936e-07
        Cs   0.000000e+00   0.000000e+00   0.000000e+00   3.140701e-09  -2.145426e-19   5.880086e-07
        Sn   2.878334e+00   2.878334e+00   2.878334e+00  -8.673764e-10   4.037899e-20  -1.624655e-07
PRIMCOORD         24
         5         1
        Br   0.000000e+00   2.878334e+00   2.878334e+00   1.629773e-07   4.892457e-16  -7.006944e-07
        Br   2.878334e+00   0.000000e+00   2.878334e+00  -1.307613e-04   8.797629e-20   6.979362e-07
        Br   2.878334e+00   2.878334e+00   0.000000e+00   1.312187e-04  -4.892092e-16  -8.702822e-10
        Cs   0.000000e+00   0.000000e+00   0.000000e+00  -5.882163e-07  -6.572689e-20   3.139593e-09
        Sn   2.878334e+00   2.878334e+00   2.878334e+00   1.624493e-07   1.033051e-19  -8.674628e-10
PRIMCOORD         25
         5         1
        Br   0.000000e+00   2.878334e+00   2.878334e+00   4.026644e-05  -3.171727e-19   7.153437e-06
        Br   2.878334e+00   0.000000e+00   2.878334e+00   5.104206e-05  -1.295444e-19   7.322415e-06
        Br   2.878334e+00   2.878334e+00   0.000000e+00   4.985645e-05  -2.904994e-19   5.777455e-06
        Cs   0.000000e+00   0.000000e+00   0.000000e+00  -1.212013e-04   8.707812e-19  -1.738735e-05
        Sn   2.878334e+00   2.878334e+00   2.878334e+00   4.075755e-05  -3.638577e-19   5.847920e-06
PRIMCOORD         26
         5         1
        Br   0.000000e+00   2.878334e+00   2.878334e+00  -5.777388e-06   1.220706e-19   4.985704e-05
        Br   2.878334e+00   0.000000e+00   2.878334e+00  -7.323463e-06   1.984700e-20   5.103475e-05
        Br   2.878334e+00   2.878334e+00   0.000000e+00  -7.153354e-06  -3.194954e-19   4.026691e-05
        Cs   0.000000e+00   0.000000e+00   0.000000e+00   1.738984e-05   2.432673e-19  -1.211840e-04
        Sn   2.878334e+00   2.878334e+00   2.878334e+00  -5.847851e-06  -7.108415e-20   4.075802e-05
PRIMCOORD         27
         5         1
        Br   0.000000e+00   2.878334e+00   2.878334e+00  -3.060363e-19  -3.268231e-05  -3.107555e-19
        Br   2.878334e+00   0.000000e+00   2.878334e+00  -4.015641e-19  -3.605337e-05   6.948295e-20
        Br   2.878334e+00   2.878334e+00   0.000000e+00  -1.140208e-19  -3.268231e-05  -1.517915e-19
        Cs   0.000000e+00   0.000000e+00   0.000000e+00   7.844402e-19   1.202800e-04   3.300154e-19
        Sn   2.878334e+00   2.878334e+00   2.878334e+00  -2.269866e-19  -6.716966e-05  -1.591115e-19
PRIMCOORD         28
         5         1
        Br   0.000000e+00   2.878334e+00   2.878334e+00   1.099889e-04  -2.794574e-20  -7.779785e-07
        Br   2.878334e+00   0.000000e+00   2.878334e+00   3.030954e-05   3.660336e-20  -7.778443e-07
        Br   2.878334e+00   2.878334e+00   0.000000e+00   3.031505e-05   1.095020e-21  -2.822656e-06
        Cs   0.000000e+00   0.000000e+00   0.000000e+00   1.981288e-06   3.369982e-20  -5.084649e-08
        Sn   2.878334e+00   2.878334e+00   2.878334e+00  -1.170718e-04   1.781477e-20   3.004425e-06
PRIMCOORD         29
         5         1
        Br   0.000000e+00   2.878334e+00   2.878334e+00  -2.822656e-06  -7.172857e-23  -3.031505e-05
        Br   2.878334e+00   0.000000e+00   2.878334e+00  -7.778370e-07  -3.943371e-20  -3.030982e-05
        Br   2.878334e+00   2.878334e+00   0.000000e+00  -7.779784e-07   3.968989e-20  -1.099889e-04
        Cs   0.000000e+00   0.000000e+00   0.000000e+00  -5.084601e-08   6.702366e-21  -1.981307e-06
        Sn   2.878334e+00   2.878334e+00   2.878334e+00   3.004425e-06  -4.283961e-20   1.170718e-04
PRIMCOORD         30
         5         1
        Br   0.000000e+00   2.878334e+00   2.878334e+00  -1.421677e-20  -1.719789e-05   5.823458e-21
        Br   2.878334e+00   0.000000e+00   2.878334e+00   5.119069e-21  -1.379732e-04   1.353717e-20
        Br   2.878334e+00   2.878334e+00   0.000000e+00   5.353311e-22  -1.719789e-05   1.285296e-20
        Cs   0.000000e+00   0.000000e+00   0.000000e+00  -2.887140e-20   1.750645e-05  -3.836764e-21
        Sn   2.878334e+00   2.878334e+00   2.878334e+00  -3.989718e-21   9.660627e-05   4.269936e-21
PRIMCOORD         31
         5         1
        Br   0.000000e+00   2.878334e+00   2.878334e+00  -6.322405e-05  -8.866173e-19  -3.626691e-05
        Br   2.878334e+00   0.000000e+00   2.878334e+00  -6.760670e-05  -2.447409e-19  -3.605951e-05
        Br   2.878334e+00   2.878334e+00   0.000000e+00  -6.792287e-05  -9.056415e-19  -3.375801e-05
        Cs   0.000000e+00   0.000000e+00   0.000000e+00  -6.601956e-05  -4.716384e-19  -3.521297e-05
        Sn   2.878334e+00   2.878334e+00   2.878334e+00  -6.486810e-05  -4.841725e-19  -3.463583e-05
PRIMCOORD         32
         5         1
        Br   0.000000e+00   2.878334e+00   2.878334e+00   3.375332e-05   6.458213e-19  -6.793230e-05
        Br   2.878334e+00   0.000000e+00   2.878334e+00   3.609308e-05   6.670679e-19  -6.754382e-05
        Br   2.878334e+00   2.878334e+00   0.000000e+00   3.626187e-05   5.285294e-19  -6.323283e-05
        Cs   0.000000e+00   0.000000e+00   0.000000e+00   3.524575e-05   5.845889e-19  -6.595815e-05
        Sn   2.878334e+00   2.878334e+00   2.878334e+00   3.463103e-05   7.410985e-19  -6.487710e-05
PRIMCOORD         33
         5         1
        Br   0.000000e+00   2.878334e+00   2.878334e+00   8.412595e-06   6.880336e-19   8.768567e-05
        Br   2.878334e+00   0.000000e+00   2.878334e+00  -5.949747e-06   1.264740e-18   8.759657e-05
        Br   2.878334e+00   2.878334e+00   0.000000e+00  -5.954353e-06   5.455352e-19  -1.238865e-04
        Cs   0.000000e+00   0.000000e+00   0.000000e+00  -3.323905e-07   9.830720e-19   4.893698e-06
        Sn   2.878334e+00   2.878334e+00   2.878334e+00   3.242997e-06   1.206139e-18  -4.775739e-05
PRIMCOORD         34
         5         1
        Br   0.000000e+00   2.878334e+00   2.878334e+00  -1.238856e-04   1.122184e-18   5.954395e-06
        Br   2.878334e+00   0.000000e+00   2.878334e+00   8.761721e-05   1.818650e-18   5.948345e-06
        Br   2.878334e+00   2.878334e+00   0.000000e+00   8.768504e-05   1.216336e-18  -8.412655e-06
        Cs   0.000000e+00   0.000000e+00   0.000000e+00   4.894851e-06   1.534491e-18   3.323122e-07
        Sn   2.878334e+00   2.878334e+00   2.878334e+00  -4.775704e-05   1.698423e-18  -3.243020e-06
PRIMCOORD         35
         5         1
        Br   0.000000e+00   2.878334e+00   2.878334e+00   3.252628e-19  -6.957267e-05   1.141230e-18
        Br   2.878334e+00   0.000000e+00   2.878334e+00   3.426125e-18  -5.680522e-05   1.150465e-18
        Br   2.878334e+00   2.878334e+00   0.000000e+00   3.412106e-18  -6.957267e-05  -2.380405e-18
        Cs   0.000000e+00   0.000000e+00   0.000000e+00   2.152731e-18  -6.179592e-05  -2.422777e-19
        Sn   2.878334e+00   2.878334e+00   2.878334e+00   1.368007e-18  -6.068007e-05  -1.115075e-18
PRIMCOORD         36
         5         1
        Br   0.000000e+00   2.878334e+00   2.878334e+00   5.286609e-19  -9.609968e-05  -3.144872e-19
        Br   2.878334e+00   0.000000e+00   2.878334e+00  -3.111616e-19   9.335740e-05  -2.151795e-19
        Br   2.878334e+00   2.878334e+00   0.000000e+00  -4.031092e-19  -9.609968e-05   7.158266e-19
        Cs   0.000000e+00   0.000000e+00   0.000000e+00   1.128855e-19   1.889712e-05   2.003975e-19
        Sn   2.878334e+00   2.878334e+00   2.878334e+00   2.708150e-19   6.394186e-05   4.067552e-19
PRIMCOORD         37
         5         1
        Br   0.000000e+00   2.878334e+00   2.878334e+00  -1.459773e-19   1.075624e-10   5.260807e-18
        Br   2.878334e+00   0.000000e+00   2.878334e+00   2.550453e-17   1.457803e-21  -4.862408e-18
        Br   2.878334e+00   2.878334e+00   0.000000e+00  -2.657540e-17  -1.075624e-10   2.346114e-20
        Cs   0.000000e+00   0.000000e+00   0.000000e+00   5.057265e-19  -1.511620e-21  -1.037128e-19
        Sn   2.878334e+00   2.878334e+00   2.878334e+00  -1.481513e-19  -2.058735e-20   2.418054e-20
PRIMCOORD         38
         5         1
        Br   0.000000e+00   2.878334e+00   2.878334e+00   1.299329e-08  -4.711862e-18   1.318803e-04
        Br   2.878334e+00   0.000000e+00   2.878334e+00  -2.531385e-06   4.781101e-20  -1.297763e-04
        Br   2.878334e+00   2.878334e+00   0.000000e+00   2.573616e-06   4.649108e-18   6.658179e-07
        Cs   0.000000e+00   0.000000e+00   0.000000e+00  -4.663660e-08   5.385640e-20  -2.390915e-06
        Sn   2.878334e+00   2.878334e+00   2.878334e+00   1.297376e-08   4.033351e-20   6.648168e-07
PRIMCOORD         39
         5         1
        Br   0.000000e+00   2.878334e+00   2.878334e+00   6.658006e-07   9.166415e-18  -2.573683e-06
        Br   2.878334e+00   0.000000e+00   2.878334e+00  -1.297129e-04   1.358459e-19   2.532622e-06
        Br   2.878334e+00   2.878334e+00   0.000000e+00   1.318769e-04  -9.072727e-18  -1.299363e-08
        Cs   0.000000e+00   0.000000e+00   0.000000e+00  -2.389746e-06  -2.438708e-19   4.665940e-08
        Sn   2.878334e+00   2.878334e+00   2.878334e+00   6.647995e-07   1.989267e-19  -1.297409e-08
PRIMCOORD         40
         5         1
        Br   0.000000e+00   2.878334e+00   2.878334e+00   4.064093e-05  -3.697551e-19  -3.269400e-07
        Br   2.878334e+00   0.000000e+00   2.878334e+00   5.339334e-05   6.903428e-20  -3.595858e-07
        Br   2.878334e+00   2.878334e+00   0.000000e+00   4.855768e-05   2.861294e-19  -2.736363e-07
        Cs   0.000000e+00   0.000000e+00   0.000000e+00  -1.221488e-04   1.983407e-19   8.226302e-07
        Sn   2.878334e+00   2.878334e+00   2.878334e+00   4.118053e-05  -3.919702e-20  -2.772694e-07
PRIMCOORD         41
         5         1
        Br   0.000000e+00   2.878334e+00   2.878334e+00  -2.736343e-07  -2.676991e-19  -4.855803e-05
        Br   2.878334e+00   0.000000e+00   2.878334e+00  -3.594960e-07  -2.514868e-20  -5.340667e-05
        Br   2.878334e+00   2.878334e+00   0.000000e+00  -3.269376e-07   3.728387e-19  -4.064122e-05
        Cs   0.000000e+00   0.000000e+00   0.000000e+00   8.224248e-07  -5.228716e-20   1.221793e-04
        Sn   2.878334e+00   2.878334e+00   2.878334e+00  -2.772675e-07   1.247829e-21  -4.118082e-05
PRIMCOORD         42
         5         1
        Br   0.000000e+00   2.878334e+00   2.878334e+00   1.847761e-19   3.187177e-05  -2.056450e-20
        Br   2.878334e+00   0.000000e+00   2.878334e+00   3.684383e-19   3.653944e-05   3.620298e-20
        Br   2.878334e+00   2.878334e+00   0.000000e+00  -2.932588e-19   3.187177e-05   5.199671e-20
        Cs   0.000000e+00   0.000000e+00   0.000000e+00  -2.888243e-19  -1.172923e-04  -3.569145e-20
        Sn   2.878334e+00   2.878334e+00   2.878334e+00   8.422336e-20   6.744412e-05   5.587112e-20
PRIMCOORD         43
         5         1
        Br   0.000000e+00   2.878334e+00   2.878334e+00   1.099274e-04  -3.258082e-20  -1.615027e-06
        Br   2.878334e+00   0.000000e+00   2.878334e+00   3.019946e-05  -1.214212e-20  -1.613909e-06
        Br   2.878334e+00   2.878334e+00   0.000000e+00   3.022385e-05  -3.965391e-21  -5.874027e-06
        Cs   0.000000e+00   0.000000e+00   0.000000e+00   1.967742e-06   5.706247e-20  -1.051594e-07
        Sn   2.878334e+00   2.878334e+00   2.878334e+00  -1.169208e-04  -8.084226e-21   6.247721e-06
PRIMCOORD         44
         5         1
        Br   0.000000e+00   2.878334e+00   2.878334e+00  -5.874018e-06  -2.384309e-21  -3.022389e-05
        Br   2.878334e+00   0.000000e+00   2.878334e+00  -1.613721e-06  -2.673655e-20  -3.020299e-05
        Br   2.878334e+00   2.878334e+00   0.000000e+00  -1.615024e-06   4.208237e-20  -1.099276e-04
        Cs   0.000000e+00   0.000000e+00   0.000000e+00  -1.051471e-07   8.354312e-21  -1.967972e-06
        Sn   2.878334e+00   2.878334e+00   2.878334e+00   6.247711e-06  -2.494516e-20   1.169209e-04
PRIMCOORD         45
         5         1
        Br   0.000000e+00   2.878334e+00   2.878334e+00  -1.049384e-20  -1.303448e-05  -9.105497e-21
        Br   2.878334e+00   0.000000e+00   2.878334e+00   3.607885e-21  -9.892752e-05   9.076812e-21
        Br   2.878334e+00   2.878334e+00   0.000000e+00   1.173620e-22  -1.303448e-05   1.523849e-20
        Cs   0.000000e+00   0.000000e+00   0.000000e+00  -1.067340e-20   1.252847e-05  -2.722446e-21
        Sn   2.878334e+00   2.878334e+00   2.878334e+00   4.812115e-21   7.320846e-05   3.742917e-21
PRIMCOORD         46
         5         1
        Br   0.000000e+00   2.878334e+00   2.878334e+00   2.049131e-05   6.736826e-19   7.392140e-05
        Br   2.878334e+00   0.000000e+00   2.878334e+00   2.174915e-05   2.099476e-19   7.297479e-05
        Br   2.878334e+00   2.878334e+00   0.000000e+00   2.205656e-05   7.421859e-19   6.867552e-05
        Cs   0.000000e+00   0.000000e+00   0.000000e+00   2.132164e-05   4.127877e-19   7.154038e-05
        Sn   2.878334e+00   2.878334e+00   2.878334e+00   2.101957e-05   3.104541e-19   7.044595e-05
PRIMCOORD         47
         5         1
        Br   0.000000e+00   2.878334e+00   2.878334e+00  -6.867067e-05   7.886037e-19   2.205812e-05
        Br   2.878334e+00   0.000000e+00   2.878334e+00  -7.288596e-05   1.042604e-18   2.177565e-05
        Br   2.878334e+00   2.878334e+00   0.000000e+00  -7.391618e-05   8.584939e-19   2.049275e-05
        Cs   0.000000e+00   0.000000e+00   0.000000e+00  -7.145330e-05   9.846490e-19   2.134763e-05
        Sn   2.878334e+00   2.878334e+00   2.878334e+00  -7.044098e-05   1.020041e-18   2.102105e-05
PRIMCOORD         48
         5         1
        Br   0.000000e+00   2.878334e+00   2.878334e+00  -8.535489e-06  -6.211041e-19  -8.761326e-05
        Br   2.878334e+00   0.000000e+00   2.878334e+00   6.027221e-06  -1.145357e-18  -8.741360e-05
        Br   2.878334e+00   2.878334e+00   0.000000e+00   6.039833e-06  -4.730634e-19   1.238150e-04
        Cs   0.000000e+00   0.000000e+00   0.000000e+00   3.436166e-07  -9.160327e-19  -4.983518e-06
        Sn   2.878334e+00   2.878334e+00   2.878334e+00  -3.300253e-06  -1.091963e-18   4.787316e-05
PRIMCOORD         49
         5         1
        Br   0.000000e+00   2.878334e+00   2.878334e+00   1.238148e-04   2.902093e-19  -6.039845e-06
        Br   2.878334e+00   0.000000e+00   2.878334e+00  -8.743014e-05  -5.799924e-19  -6.026081e-06
        Br   2.878334e+00   2.878334e+00   0.000000e+00  -8.761309e-05   2.536853e-19   8.535506e-06
        Cs   0.000000e+00   0.000000e+00   0.000000e+00  -4.984460e-06  -1.877906e-19  -3.435516e-07
        Sn   2.878334e+00   2.878334e+00   2.878334e+00   4.787307e-05  -4.340684e-19   3.300259e-06
PRIMCOORD         50
         5         1
        Br   0.000000e+00   2.878334e+00   2.878334e+00  -3.797205e-19  -4.484750e-05   5.925345e-19
        Br   2.878334e+00   0.000000e+00   2.878334e+00  -5.812328e-19  -3.679523e-05   6.930125e-19
        Br   2.878334e+00   2.878334e+00   0.000000e+00  -5.586144e-19  -4.484750e-05   1.579947e-19
        Cs   0.000000e+00   0.000000e+00   0.000000e+00  -4.845851e-19  -4.423719e-05   4.756809e-19
        Sn   2.878334e+00   2.878334e+00   2.878334e+00  -4.540157e-19  -3.378400e-05   3.118383e-19
PRIMCOORD         51
         5         1
        Br   0.000000e+00   2.878334e+00   2.878334e+00  -7.836877e-19   9.064291e-05   5.357522e-19
        Br   2.878334e+00   0.000000e+00   2.878334e+00   5.671074e-20  -9.571384e-05   3.029710e-19
        Br   2.878334e+00   2.878334e+00   0.000000e+00   1.405944e-19   9.064291e-05  -6.592687e-19
        Cs   0.000000e+00   0.000000e+00   0.000000e+00  -1.242306e-19  -2.552234e-05  -9.781730e-20
        Sn   2.878334e+00   2.878334e+00   2.878334e+00  -4.997993e-19  -6.714273e-05  -3.209285e-19
PRIMCOORD         52
         5         1
        Br   0.000000e+00   2.878334e+00   2.878334e+00   4.381088e-19  -1.270987e-04   8.429767e-18
        Br   2.878334e+00   0.000000e+00   2.878334e+00  -5.234507e-17   2.328177e-19  -7.801584e-18
        Br   2.878334e+00   2.878334e+00   0.000000e+00   5.383762e-17   1.270987e-04   1.076313e-19
        Cs   0.000000e+00   0.000000e+00   0.000000e+00  -1.585634e-18  -4.628507e-19  -6.217325e-19
        Sn   2.878334e+00   2.878334e+00   2.878334e+00   4.505242e-19   2.899985e-19   1.154083e-19
PRIMCOORD         53
         5         1
        Br   0.000000e+00   2.878334e+00   2.878334e+00   7.945821e-08   1.028856e-17   1.328503e-04
        Br   2.878334e+00   0.000000e+00   2.878334e+00  -6.576396e-06  -7.205333e-21  -1.279787e-04
        Br   2.878334e+00   2.878334e+00   0.000000e+00   6.815486e-06  -1.054628e-17   1.548833e-06
        Cs   0.000000e+00   0.000000e+00   0.000000e+00  -2.836772e-07   3.355036e-19  -5.520444e-06
        Sn   2.878334e+00   2.878334e+00   2.878334e+00   7.956579e-08  -8.034819e-20   1.550930e-06
PRIMCOORD         54
         5         1
        Br   0.000000e+00   2.878334e+00   2.878334e+00   1.548606e-06   5.077808e-17  -6.816483e-06
        Br   2.878334e+00   0.000000e+00   2.878334e+00  -1.281711e-04   3.006793e-21   6.566521e-06
        Br   2.878334e+00   2.878334e+00   0.000000e+00   1.328309e-04  -5.086113e-17  -7.946983e-08
        Cs   0.000000e+00   0.000000e+00   0.000000e+00  -5.528745e-06   5.460055e-20   2.832512e-07
        Sn   2.878334e+00   2.878334e+00   2.878334e+00   1.550703e-06  -1.168286e-20  -7.957743e-08
PRIMCOORD         55
         5         1
        Br   0.000000e+00   2.878334e+00   2.878334e+00   4.026666e-05  -7.058901e-19   5.455869e-08
        Br   2.878334e+00   0.000000e+00   2.878334e+00   5.685697e-05  -8.544215e-20   6.808431e-08