# Animation of a phonon mode
# K point :        0       0       0
# Mode index :    4
# Frequency (cm^-1) : 1.09737e-10

ANIMSTEPS 20
CRYSTAL
PRIMVEC
   1.151334e+01   0.000000e+00  -0.000000e+00
  -0.000000e+00   1.151334e+01  -0.000000e+00
  -0.000000e+00   0.000000e+00   1.151334e+01
PRIMCOORD          1
        40         1
        Br   0.000000e+00   2.878334e+00   2.878334e+00
        Br   2.878334e+00   2.850323e-18   2.878334e+00
        Br   2.878334e+00   2.878334e+00   0.000000e+00
        Cs   9.887170e-18   0.000000e+00   0.000000e+00
        Sn   2.878334e+00   2.878334e+00   2.878334e+00
        Br   0.000000e+00   2.878334e+00   8.635002e+00
        Br   2.878334e+00   2.850323e-18   8.635002e+00
        Br   2.878334e+00   2.878334e+00   5.756668e+00
        Cs   9.887170e-18   0.000000e+00   5.756668e+00
        Sn   2.878334e+00   2.878334e+00   8.635002e+00
        Br   0.000000e+00   8.635002e+00   2.878334e+00
        Br   2.878334e+00   5.756668e+00   2.878334e+00
        Br   2.878334e+00   8.635002e+00   0.000000e+00
        Cs   9.887170e-18   5.756668e+00   0.000000e+00
        Sn   2.878334e+00   8.635002e+00   2.878334e+00
        Br   0.000000e+00   8.635002e+00   8.635002e+00
        Br   2.878334e+00   5.756668e+00   8.635002e+00
        Br   2.878334e+00   8.635002e+00   5.756668e+00
        Cs   9.887170e-18   5.756668e+00   5.756668e+00
        Sn   2.878334e+00   8.635002e+00   8.635002e+00
        Br   5.756668e+00   2.878334e+00   2.878334e+00
        Br   8.635002e+00   2.850323e-18   2.878334e+00
        Br   8.635002e+00   2.878334e+00   0.000000e+00
        Cs   5.756668e+00   0.000000e+00   0.000000e+00
        Sn   8.635002e+00   2.878334e+00   2.878334e+00
        Br   5.756668e+00   2.878334e+00   8.635002e+00
        Br   8.635002e+00   2.850323e-18   8.635002e+00
        Br   8.635002e+00   2.878334e+00   5.756668e+00
        Cs   5.756668e+00   0.000000e+00   5.756668e+00
        Sn   8.635002e+00   2.878334e+00   8.635002e+00
        Br   5.756668e+00   8.635002e+00   2.878334e+00
        Br   8.635002e+00   5.756668e+00   2.878334e+00
        Br   8.635002e+00   8.635002e+00   0.000000e+00
        Cs   5.756668e+00   5.756668e+00   0.000000e+00
        Sn   8.635002e+00   8.635002e+00   2.878334e+00
        Br   5.756668e+00   8.635002e+00   8.635002e+00
        Br   8.635002e+00   5.756668e+00   8.635002e+00
        Br   8.635002e+00   8.635002e+00   5.756668e+00
        Cs   5.756668e+00   5.756668e+00   5.756668e+00
        Sn   8.635002e+00   8.635002e+00   8.635002e+00
PRIMCOORD          2
        40         1
        Br   4.273466e-04   2.881538e+00   2.876299e+00
        Br   2.871872e+00  -1.368050e-02   2.821536e+00
        Br   2.844724e+00   2.924088e+00   1.522723e-02
        Cs  -4.745477e-02   3.322577e-02   4.099544e-04
        Sn   2.882433e+00   2.883381e+00   2.878909e+00
        Br   4.273466e-04   2.881538e+00   8.632967e+00
        Br   2.871872e+00  -1.368050e-02   8.578205e+00
        Br   2.844724e+00   2.924088e+00   5.771896e+00
        Cs  -4.745477e-02   3.322577e-02   5.757078e+00
        Sn   2.882433e+00   2.883381e+00   8.635577e+00
        Br   4.273466e-04   8.638206e+00   2.876299e+00
        Br   2.871872e+00   5.742988e+00   2.821536e+00
        Br   2.844724e+00   8.680756e+00   1.522723e-02
        Cs  -4.745477e-02   5.789894e+00   4.099544e-04
        Sn   2.882433e+00   8.640049e+00   2.878909e+00
        Br   4.273466e-04   8.638206e+00   8.632967e+00
        Br   2.871872e+00   5.742988e+00   8.578205e+00
        Br   2.844724e+00   8.680756e+00   5.771896e+00
        Cs  -4.745477e-02   5.789894e+00   5.757078e+00
        Sn   2.882433e+00   8.640049e+00   8.635577e+00
        Br   5.757096e+00   2.881538e+00   2.876299e+00
        Br   8.628540e+00  -1.368050e-02   2.821536e+00
        Br   8.601392e+00   2.924088e+00   1.522723e-02
        Cs   5.709214e+00   3.322577e-02   4.099544e-04
        Sn   8.639101e+00   2.883381e+00   2.878909e+00
        Br   5.757096e+00   2.881538e+00   8.632967e+00
        Br   8.628540e+00  -1.368050e-02   8.578205e+00
        Br   8.601392e+00   2.924088e+00   5.771896e+00
        Cs   5.709214e+00   3.322577e-02   5.757078e+00
        Sn   8.639101e+00   2.883381e+00   8.635577e+00
        Br   5.757096e+00   8.638206e+00   2.876299e+00
        Br   8.628540e+00   5.742988e+00   2.821536e+00
        Br   8.601392e+00   8.680756e+00   1.522723e-02
        Cs   5.709214e+00   5.789894e+00   4.099544e-04
        Sn   8.639101e+00   8.640049e+00   2.878909e+00
        Br   5.757096e+00   8.638206e+00   8.632967e+00
        Br   8.628540e+00   5.742988e+00   8.578205e+00
        Br   8.601392e+00   8.680756e+00   5.771896e+00
        Cs   5.709214e+00   5.789894e+00   5.757078e+00
        Sn   8.639101e+00   8.640049e+00   8.635577e+00
PRIMCOORD          3
        40         1
        Br   6.914613e-04   2.883518e+00   2.875041e+00
        Br   2.867878e+00  -2.213551e-02   2.786433e+00
        Br   2.823952e+00   2.952365e+00   2.463818e-02
        Cs  -7.678342e-02   5.376042e-02   6.633202e-04
        Sn   2.884966e+00   2.886500e+00   2.879264e+00
        Br   6.914613e-04   2.883518e+00   8.631710e+00
        Br   2.867878e+00  -2.213551e-02   8.543102e+00
        Br   2.823952e+00   2.952365e+00   5.781306e+00
        Cs  -7.678342e-02   5.376042e-02   5.757332e+00
        Sn   2.884966e+00   2.886500e+00   8.635932e+00
        Br   6.914613e-04   8.640186e+00   2.875041e+00
        Br   2.867878e+00   5.734533e+00   2.786433e+00
        Br   2.823952e+00   8.709034e+00   2.463818e-02
        Cs  -7.678342e-02   5.810429e+00   6.633202e-04
        Sn   2.884966e+00   8.643168e+00   2.879264e+00
        Br   6.914613e-04   8.640186e+00   8.631710e+00
        Br   2.867878e+00   5.734533e+00   8.543102e+00
        Br   2.823952e+00   8.709034e+00   5.781306e+00
        Cs  -7.678342e-02   5.810429e+00   5.757332e+00
        Sn   2.884966e+00   8.643168e+00   8.635932e+00
        Br   5.757360e+00   2.883518e+00   2.875041e+00
        Br   8.624546e+00  -2.213551e-02   2.786433e+00
        Br   8.580620e+00   2.952365e+00   2.463818e-02
        Cs   5.679885e+00   5.376042e-02   6.633202e-04
        Sn   8.641634e+00   2.886500e+00   2.879264e+00
        Br   5.757360e+00   2.883518e+00   8.631710e+00
        Br   8.624546e+00  -2.213551e-02   8.543102e+00
        Br   8.580620e+00   2.952365e+00   5.781306e+00
        Cs   5.679885e+00   5.376042e-02   5.757332e+00
        Sn   8.641634e+00   2.886500e+00   8.635932e+00
        Br   5.757360e+00   8.640186e+00   2.875041e+00
        Br   8.624546e+00   5.734533e+00   2.786433e+00
        Br   8.580620e+00   8.709034e+00   2.463818e-02
        Cs   5.679885e+00   5.810429e+00   6.633202e-04
        Sn   8.641634e+00   8.643168e+00   2.879264e+00
        Br   5.757360e+00   8.640186e+00   8.631710e+00
        Br   8.624546e+00   5.734533e+00   8.543102e+00
        Br   8.580620e+00   8.709034e+00   5.781306e+00
        Cs   5.679885e+00   5.810429e+00   5.757332e+00
        Sn   8.641634e+00   8.643168e+00   8.635932e+00
PRIMCOORD          4
        40         1
        Br   6.914613e-04   2.883518e+00   2.875041e+00
        Br   2.867878e+00  -2.213551e-02   2.786433e+00
        Br   2.823952e+00   2.952365e+00   2.463818e-02
        Cs  -7.678342e-02   5.376042e-02   6.633202e-04
        Sn   2.884966e+00   2.886500e+00   2.879264e+00
        Br   6.914613e-04   2.883518e+00   8.631710e+00
        Br   2.867878e+00  -2.213551e-02   8.543102e+00
        Br   2.823952e+00   2.952365e+00   5.781306e+00
        Cs  -7.678342e-02   5.376042e-02   5.757332e+00
        Sn   2.884966e+00   2.886500e+00   8.635932e+00
        Br   6.914613e-04   8.640186e+00   2.875041e+00
        Br   2.867878e+00   5.734533e+00   2.786433e+00
        Br   2.823952e+00   8.709034e+00   2.463818e-02
        Cs  -7.678342e-02   5.810429e+00   6.633202e-04
        Sn   2.884966e+00   8.643168e+00   2.879264e+00
        Br   6.914613e-04   8.640186e+00   8.631710e+00
        Br   2.867878e+00   5.734533e+00   8.543102e+00
        Br   2.823952e+00   8.709034e+00   5.781306e+00
        Cs  -7.678342e-02   5.810429e+00   5.757332e+00
        Sn   2.884966e+00   8.643168e+00   8.635932e+00
        Br   5.757360e+00   2.883518e+00   2.875041e+00
        Br   8.624546e+00  -2.213551e-02   2.786433e+00
        Br   8.580620e+00   2.952365e+00   2.463818e-02
        Cs   5.679885e+00   5.376042e-02   6.633202e-04
        Sn   8.641634e+00   2.886500e+00   2.879264e+00
        Br   5.757360e+00   2.883518e+00   8.631710e+00
        Br   8.624546e+00  -2.213551e-02   8.543102e+00
        Br   8.580620e+00   2.952365e+00   5.781306e+00
        Cs   5.679885e+00   5.376042e-02   5.757332e+00
        Sn   8.641634e+00   2.886500e+00   8.635932e+00
        Br   5.757360e+00   8.640186e+00   2.875041e+00
        Br   8.624546e+00   5.734533e+00   2.786433e+00
        Br   8.580620e+00   8.709034e+00   2.463818e-02
        Cs   5.679885e+00   5.810429e+00   6.633202e-04
        Sn   8.641634e+00   8.643168e+00   2.879264e+00
        Br   5.757360e+00   8.640186e+00   8.631710e+00
        Br   8.624546e+00   5.734533e+00   8.543102e+00
        Br   8.580620e+00   8.709034e+00   5.781306e+00
        Cs   5.679885e+00   5.810429e+00   5.757332e+00
        Sn   8.641634e+00   8.643168e+00   8.635932e+00
PRIMCOORD          5
        40         1
        Br   4.273466e-04   2.881538e+00   2.876299e+00
        Br   2.871872e+00  -1.368050e-02   2.821536e+00
        Br   2.844724e+00   2.924088e+00   1.522723e-02
        Cs  -4.745477e-02   3.322577e-02   4.099544e-04
        Sn   2.882433e+00   2.883381e+00   2.878909e+00
        Br   4.273466e-04   2.881538e+00   8.632967e+00
        Br   2.871872e+00  -1.368050e-02   8.578205e+00
        Br   2.844724e+00   2.924088e+00   5.771896e+00
        Cs  -4.745477e-02   3.322577e-02   5.757078e+00
        Sn   2.882433e+00   2.883381e+00   8.635577e+00
        Br   4.273466e-04   8.638206e+00   2.876299e+00
        Br   2.871872e+00   5.742988e+00   2.821536e+00
        Br   2.844724e+00   8.680756e+00   1.522723e-02
        Cs  -4.745477e-02   5.789894e+00   4.099544e-04
        Sn   2.882433e+00   8.640049e+00   2.878909e+00
        Br   4.273466e-04   8.638206e+00   8.632967e+00
        Br   2.871872e+00   5.742988e+00   8.578205e+00
        Br   2.844724e+00   8.680756e+00   5.771896e+00
        Cs  -4.745477e-02   5.789894e+00   5.757078e+00
        Sn   2.882433e+00   8.640049e+00   8.635577e+00
        Br   5.757096e+00   2.881538e+00   2.876299e+00
        Br   8.628540e+00  -1.368050e-02   2.821536e+00
        Br   8.601392e+00   2.924088e+00   1.522723e-02
        Cs   5.709214e+00   3.322577e-02   4.099544e-04
        Sn   8.639101e+00   2.883381e+00   2.878909e+00
        Br   5.757096e+00   2.881538e+00   8.632967e+00
        Br   8.628540e+00  -1.368050e-02   8.578205e+00
        Br   8.601392e+00   2.924088e+00   5.771896e+00
        Cs   5.709214e+00   3.322577e-02   5.757078e+00
        Sn   8.639101e+00   2.883381e+00   8.635577e+00
        Br   5.757096e+00   8.638206e+00   2.876299e+00
        Br   8.628540e+00   5.742988e+00   2.821536e+00
        Br   8.601392e+00   8.680756e+00   1.522723e-02
        Cs   5.709214e+00   5.789894e+00   4.099544e-04
        Sn   8.639101e+00   8.640049e+00   2.878909e+00
        Br   5.757096e+00   8.638206e+00   8.632967e+00
        Br   8.628540e+00   5.742988e+00   8.578205e+00
        Br   8.601392e+00   8.680756e+00   5.771896e+00
        Cs   5.709214e+00   5.789894e+00   5.757078e+00
        Sn   8.639101e+00   8.640049e+00   8.635577e+00
PRIMCOORD          6
        40         1
        Br   8.903738e-20   2.878334e+00   2.878334e+00
        Br   2.878334e+00  -5.700645e-18   2.878334e+00
        Br   2.878334e+00   2.878334e+00   3.172584e-18
        Cs  -1.977434e-17   6.922567e-18   8.541375e-20
        Sn   2.878334e+00   2.878334e+00   2.878334e+00
        Br   8.903738e-20   2.878334e+00   8.635002e+00
        Br   2.878334e+00  -5.700645e-18   8.635002e+00
        Br   2.878334e+00   2.878334e+00   5.756668e+00
        Cs  -1.977434e-17   6.922567e-18   5.756668e+00
        Sn   2.878334e+00   2.878334e+00   8.635002e+00
        Br   8.903738e-20   8.635002e+00   2.878334e+00
        Br   2.878334e+00   5.756668e+00   2.878334e+00
        Br   2.878334e+00   8.635002e+00   3.172584e-18
        Cs  -1.977434e-17   5.756668e+00   8.541375e-20
        Sn   2.878334e+00   8.635002e+00   2.878334e+00
        Br   8.903738e-20   8.635002e+00   8.635002e+00
        Br   2.878334e+00   5.756668e+00   8.635002e+00
        Br   2.878334e+00   8.635002e+00   5.756668e+00
        Cs  -1.977434e-17   5.756668e+00   5.756668e+00
        Sn   2.878334e+00   8.635002e+00   8.635002e+00
        Br   5.756668e+00   2.878334e+00   2.878334e+00
        Br   8.635002e+00  -5.700645e-18   2.878334e+00
        Br   8.635002e+00   2.878334e+00   3.172584e-18
        Cs   5.756668e+00   6.922567e-18   8.541375e-20
        Sn   8.635002e+00   2.878334e+00   2.878334e+00
        Br   5.756668e+00   2.878334e+00   8.635002e+00
        Br   8.635002e+00  -5.700645e-18   8.635002e+00
        Br   8.635002e+00   2.878334e+00   5.756668e+00
        Cs   5.756668e+00   6.922567e-18   5.756668e+00
        Sn   8.635002e+00   2.878334e+00   8.635002e+00
        Br   5.756668e+00   8.635002e+00   2.878334e+00
        Br   8.635002e+00   5.756668e+00   2.878334e+00
        Br   8.635002e+00   8.635002e+00   3.172584e-18
        Cs   5.756668e+00   5.756668e+00   8.541375e-20
        Sn   8.635002e+00   8.635002e+00   2.878334e+00
        Br   5.756668e+00   8.635002e+00   8.635002e+00
        Br   8.635002e+00   5.756668e+00   8.635002e+00
        Br   8.635002e+00   8.635002e+00   5.756668e+00
        Cs   5.756668e+00   5.756668e+00   5.756668e+00
        Sn   8.635002e+00   8.635002e+00   8.635002e+00
PRIMCOORD          7
        40         1
        Br  -4.273466e-04   2.875130e+00   2.880369e+00
        Br   2.884797e+00   1.368050e-02   2.935132e+00
        Br   2.911944e+00   2.832580e+00  -1.522723e-02
        Cs   4.745477e-02  -3.322577e-02  -4.099544e-04
        Sn   2.874236e+00   2.873288e+00   2.877760e+00
        Br  -4.273466e-04   2.875130e+00   8.637038e+00
        Br   2.884797e+00   1.368050e-02   8.691800e+00
        Br   2.911944e+00   2.832580e+00   5.741441e+00
        Cs   4.745477e-02  -3.322577e-02   5.756258e+00
        Sn   2.874236e+00   2.873288e+00   8.634428e+00
        Br  -4.273466e-04   8.631799e+00   2.880369e+00
        Br   2.884797e+00   5.770349e+00   2.935132e+00
        Br   2.911944e+00   8.589249e+00  -1.522723e-02
        Cs   4.745477e-02   5.723443e+00  -4.099544e-04
        Sn   2.874236e+00   8.629956e+00   2.877760e+00
        Br  -4.273466e-04   8.631799e+00   8.637038e+00
        Br   2.884797e+00   5.770349e+00   8.691800e+00
        Br   2.911944e+00   8.589249e+00   5.741441e+00
        Cs   4.745477e-02   5.723443e+00   5.756258e+00
        Sn   2.874236e+00   8.629956e+00   8.634428e+00
        Br   5.756241e+00   2.875130e+00   2.880369e+00
        Br   8.641465e+00   1.368050e-02   2.935132e+00
        Br   8.668612e+00   2.832580e+00  -1.522723e-02
        Cs   5.804123e+00  -3.322577e-02  -4.099544e-04
        Sn   8.630904e+00   2.873288e+00   2.877760e+00
        Br   5.756241e+00   2.875130e+00   8.637038e+00
        Br   8.641465e+00   1.368050e-02   8.691800e+00
        Br   8.668612e+00   2.832580e+00   5.741441e+00
        Cs   5.804123e+00  -3.322577e-02   5.756258e+00
        Sn   8.630904e+00   2.873288e+00   8.634428e+00
        Br   5.756241e+00   8.631799e+00   2.880369e+00
        Br   8.641465e+00   5.770349e+00   2.935132e+00
        Br   8.668612e+00   8.589249e+00  -1.522723e-02
        Cs   5.804123e+00   5.723443e+00  -4.099544e-04
        Sn   8.630904e+00   8.629956e+00   2.877760e+00
        Br   5.756241e+00   8.631799e+00   8.637038e+00
        Br   8.641465e+00   5.770349e+00   8.691800e+00
        Br   8.668612e+00   8.589249e+00   5.741441e+00
        Cs   5.804123e+00   5.723443e+00   5.756258e+00
        Sn   8.630904e+00   8.629956e+00   8.634428e+00
PRIMCOORD          8
        40         1
        Br  -6.914613e-04   2.873150e+00   2.881627e+00
        Br   2.888791e+00   2.213551e-02   2.970235e+00
        Br   2.932716e+00   2.804303e+00  -2.463818e-02
        Cs   7.678342e-02  -5.376042e-02  -6.633202e-04
        Sn   2.871703e+00   2.870169e+00   2.877405e+00
        Br  -6.914613e-04   2.873150e+00   8.638295e+00
        Br   2.888791e+00   2.213551e-02   8.726903e+00
        Br   2.932716e+00   2.804303e+00   5.732030e+00
        Cs   7.678342e-02  -5.376042e-02   5.756005e+00
        Sn   2.871703e+00   2.870169e+00   8.634073e+00
        Br  -6.914613e-04   8.629818e+00   2.881627e+00
        Br   2.888791e+00   5.778804e+00   2.970235e+00
        Br   2.932716e+00   8.560971e+00  -2.463818e-02
        Cs   7.678342e-02   5.702908e+00  -6.633202e-04
        Sn   2.871703e+00   8.626837e+00   2.877405e+00
        Br  -6.914613e-04   8.629818e+00   8.638295e+00
        Br   2.888791e+00   5.778804e+00   8.726903e+00
        Br   2.932716e+00   8.560971e+00   5.732030e+00
        Cs   7.678342e-02   5.702908e+00   5.756005e+00
        Sn   2.871703e+00   8.626837e+00   8.634073e+00
        Br   5.755977e+00   2.873150e+00   2.881627e+00
        Br   8.645459e+00   2.213551e-02   2.970235e+00
        Br   8.689385e+00   2.804303e+00  -2.463818e-02
        Cs   5.833452e+00  -5.376042e-02  -6.633202e-04
        Sn   8.628371e+00   2.870169e+00   2.877405e+00
        Br   5.755977e+00   2.873150e+00   8.638295e+00
        Br   8.645459e+00   2.213551e-02   8.726903e+00
        Br   8.689385e+00   2.804303e+00   5.732030e+00
        Cs   5.833452e+00  -5.376042e-02   5.756005e+00
        Sn   8.628371e+00   2.870169e+00   8.634073e+00
        Br   5.755977e+00   8.629818e+00   2.881627e+00
        Br   8.645459e+00   5.778804e+00   2.970235e+00
        Br   8.689385e+00   8.560971e+00  -2.463818e-02
        Cs   5.833452e+00   5.702908e+00  -6.633202e-04
        Sn   8.628371e+00   8.626837e+00   2.877405e+00
        Br   5.755977e+00   8.629818e+00   8.638295e+00
        Br   8.645459e+00   5.778804e+00   8.726903e+00
        Br   8.689385e+00   8.560971e+00   5.732030e+00
        Cs   5.833452e+00   5.702908e+00   5.756005e+00
        Sn   8.628371e+00   8.626837e+00   8.634073e+00
PRIMCOORD          9
        40         1
        Br  -6.914613e-04   2.873150e+00   2.881627e+00
        Br   2.888791e+00   2.213551e-02   2.970235e+00
        Br   2.932716e+00   2.804303e+00  -2.463818e-02
        Cs   7.678342e-02  -5.376042e-02  -6.633202e-04
        Sn   2.871703e+00   2.870169e+00   2.877405e+00
        Br  -6.914613e-04   2.873150e+00   8.638295e+00
        Br   2.888791e+00   2.213551e-02   8.726903e+00
        Br   2.932716e+00   2.804303e+00   5.732030e+00
        Cs   7.678342e-02  -5.376042e-02   5.756005e+00
        Sn   2.871703e+00   2.870169e+00   8.634073e+00
        Br  -6.914613e-04   8.629818e+00   2.881627e+00
        Br   2.888791e+00   5.778804e+00   2.970235e+00
        Br   2.932716e+00   8.560971e+00  -2.463818e-02
        Cs   7.678342e-02   5.702908e+00  -6.633202e-04
        Sn   2.871703e+00   8.626837e+00   2.877405e+00
        Br  -6.914613e-04   8.629818e+00   8.638295e+00
        Br   2.888791e+00   5.778804e+00   8.726903e+00
        Br   2.932716e+00   8.560971e+00   5.732030e+00
        Cs   7.678342e-02   5.702908e+00   5.756005e+00
        Sn   2.871703e+00   8.626837e+00   8.634073e+00
        Br   5.755977e+00   2.873150e+00   2.881627e+00
        Br   8.645459e+00   2.213551e-02   2.970235e+00
        Br   8.689385e+00   2.804303e+00  -2.463818e-02
        Cs   5.833452e+00  -5.376042e-02  -6.633202e-04
        Sn   8.628371e+00   2.870169e+00   2.877405e+00
        Br   5.755977e+00   2.873150e+00   8.638295e+00
        Br   8.645459e+00   2.213551e-02   8.726903e+00
        Br   8.689385e+00   2.804303e+00   5.732030e+00
        Cs   5.833452e+00  -5.376042e-02   5.756005e+00
        Sn   8.628371e+00   2.870169e+00   8.634073e+00
        Br   5.755977e+00   8.629818e+00   2.881627e+00
        Br   8.645459e+00   5.778804e+00   2.970235e+00
        Br   8.689385e+00   8.560971e+00  -2.463818e-02
        Cs   5.833452e+00   5.702908e+00  -6.633202e-04
        Sn   8.628371e+00   8.626837e+00   2.877405e+00
        Br   5.755977e+00   8.629818e+00   8.638295e+00
        Br   8.645459e+00   5.778804e+00   8.726903e+00
        Br   8.689385e+00   8.560971e+00   5.732030e+00
        Cs   5.833452e+00   5.702908e+00   5.756005e+00
        Sn   8.628371e+00   8.626837e+00   8.634073e+00
PRIMCOORD         10
        40         1
        Br  -4.273466e-04   2.875130e+00   2.880369e+00
        Br   2.884797e+00   1.368050e-02   2.935132e+00
        Br   2.911944e+00   2.832580e+00  -1.522723e-02
        Cs   4.745477e-02  -3.322577e-02  -4.099544e-04
        Sn   2.874236e+00   2.873288e+00   2.877760e+00
        Br  -4.273466e-04   2.875130e+00   8.637038e+00
        Br   2.884797e+00   1.368050e-02   8.691800e+00
        Br   2.911944e+00   2.832580e+00   5.741441e+00
        Cs   4.745477e-02  -3.322577e-02   5.756258e+00
        Sn   2.874236e+00   2.873288e+00   8.634428e+00
        Br  -4.273466e-04   8.631799e+00   2.880369e+00
        Br   2.884797e+00   5.770349e+00   2.935132e+00
        Br   2.911944e+00   8.589249e+00  -1.522723e-02
        Cs   4.745477e-02   5.723443e+00  -4.099544e-04
        Sn   2.874236e+00   8.629956e+00   2.877760e+00
        Br  -4.273466e-04   8.631799e+00   8.637038e+00
        Br   2.884797e+00   5.770349e+00   8.691800e+00
        Br   2.911944e+00   8.589249e+00   5.741441e+00
        Cs   4.745477e-02   5.723443e+00   5.756258e+00
        Sn   2.874236e+00   8.629956e+00   8.634428e+00
        Br   5.756241e+00   2.875130e+00   2.880369e+00
        Br   8.641465e+00   1.368050e-02   2.935132e+00
        Br   8.668612e+00   2.832580e+00  -1.522723e-02
        Cs   5.804123e+00  -3.322577e-02  -4.099544e-04
        Sn   8.630904e+00   2.873288e+00   2.877760e+00
        Br   5.756241e+00   2.875130e+00   8.637038e+00
        Br   8.641465e+00   1.368050e-02   8.691800e+00
        Br   8.668612e+00   2.832580e+00   5.741441e+00
        Cs   5.804123e+00  -3.322577e-02   5.756258e+00
        Sn   8.630904e+00   2.873288e+00   8.634428e+00
        Br   5.756241e+00   8.631799e+00   2.880369e+00
        Br   8.641465e+00   5.770349e+00   2.935132e+00
        Br   8.668612e+00   8.589249e+00  -1.522723e-02
        Cs   5.804123e+00   5.723443e+00  -4.099544e-04
        Sn   8.630904e+00   8.629956e+00   2.877760e+00
        Br   5.756241e+00   8.631799e+00   8.637038e+00
        Br   8.641465e+00   5.770349e+00   8.691800e+00
        Br   8.668612e+00   8.589249e+00   5.741441e+00
        Cs   5.804123e+00   5.723443e+00   5.756258e+00
        Sn   8.630904e+00   8.629956e+00   8.634428e+00
PRIMCOORD         11
        40         1
        Br  -1.780748e-19   2.878334e+00   2.878334e+00
        Br   2.878334e+00   8.550968e-18   2.878334e+00
        Br   2.878334e+00   2.878334e+00  -6.345169e-18
        Cs   2.966151e-17  -1.384513e-17  -1.708275e-19
        Sn   2.878334e+00   2.878334e+00   2.878334e+00
        Br  -1.780748e-19   2.878334e+00   8.635002e+00
        Br   2.878334e+00   8.550968e-18   8.635002e+00
        Br   2.878334e+00   2.878334e+00   5.756668e+00
        Cs   2.966151e-17  -1.384513e-17   5.756668e+00
        Sn   2.878334e+00   2.878334e+00   8.635002e+00
        Br  -1.780748e-19   8.635002e+00   2.878334e+00
        Br   2.878334e+00   5.756668e+00   2.878334e+00
        Br   2.878334e+00   8.635002e+00  -6.345169e-18
        Cs   2.966151e-17   5.756668e+00  -1.708275e-19
        Sn   2.878334e+00   8.635002e+00   2.878334e+00
        Br  -1.780748e-19   8.635002e+00   8.635002e+00
        Br   2.878334e+00   5.756668e+00   8.635002e+00
        Br   2.878334e+00   8.635002e+00   5.756668e+00
        Cs   2.966151e-17   5.756668e+00   5.756668e+00
        Sn   2.878334e+00   8.635002e+00   8.635002e+00
        Br   5.756668e+00   2.878334e+00   2.878334e+00
        Br   8.635002e+00   8.550968e-18   2.878334e+00
        Br   8.635002e+00   2.878334e+00  -6.345169e-18
        Cs   5.756668e+00  -1.384513e-17  -1.708275e-19
        Sn   8.635002e+00   2.878334e+00   2.878334e+00
        Br   5.756668e+00   2.878334e+00   8.635002e+00
        Br   8.635002e+00   8.550968e-18   8.635002e+00
        Br   8.635002e+00   2.878334e+00   5.756668e+00
        Cs   5.756668e+00  -1.384513e-17   5.756668e+00
        Sn   8.635002e+00   2.878334e+00   8.635002e+00
        Br   5.756668e+00   8.635002e+00   2.878334e+00
        Br   8.635002e+00   5.756668e+00   2.878334e+00
        Br   8.635002e+00   8.635002e+00  -6.345169e-18
        Cs   5.756668e+00   5.756668e+00  -1.708275e-19
        Sn   8.635002e+00   8.635002e+00   2.878334e+00
        Br   5.756668e+00   8.635002e+00   8.635002e+00
        Br   8.635002e+00   5.756668e+00   8.635002e+00
        Br   8.635002e+00   8.635002e+00   5.756668e+00
        Cs   5.756668e+00   5.756668e+00   5.756668e+00
        Sn   8.635002e+00   8.635002e+00   8.635002e+00
PRIMCOORD         12
        40         1
        Br   4.273466e-04   2.881538e+00   2.876299e+00
        Br   2.871872e+00  -1.368050e-02   2.821536e+00
        Br   2.844724e+00   2.924088e+00   1.522723e-02
        Cs  -4.745477e-02   3.322577e-02   4.099544e-04
        Sn   2.882433e+00   2.883381e+00   2.878909e+00
        Br   4.273466e-04   2.881538e+00   8.632967e+00
        Br   2.871872e+00  -1.368050e-02   8.578205e+00
        Br   2.844724e+00   2.924088e+00   5.771896e+00
        Cs  -4.745477e-02   3.322577e-02   5.757078e+00
        Sn   2.882433e+00   2.883381e+00   8.635577e+00
        Br   4.273466e-04   8.638206e+00   2.876299e+00
        Br   2.871872e+00   5.742988e+00   2.821536e+00
        Br   2.844724e+00   8.680756e+00   1.522723e-02
        Cs  -4.745477e-02   5.789894e+00   4.099544e-04
        Sn   2.882433e+00   8.640049e+00   2.878909e+00
        Br   4.273466e-04   8.638206e+00   8.632967e+00
        Br   2.871872e+00   5.742988e+00   8.578205e+00
        Br   2.844724e+00   8.680756e+00   5.771896e+00
        Cs  -4.745477e-02   5.789894e+00   5.757078e+00
        Sn   2.882433e+00   8.640049e+00   8.635577e+00
        Br   5.757096e+00   2.881538e+00   2.876299e+00
        Br   8.628540e+00  -1.368050e-02   2.821536e+00
        Br   8.601392e+00   2.924088e+00   1.522723e-02
        Cs   5.709214e+00   3.322577e-02   4.099544e-04
        Sn   8.639101e+00   2.883381e+00   2.878909e+00
        Br   5.757096e+00   2.881538e+00   8.632967e+00
        Br   8.628540e+00  -1.368050e-02   8.578205e+00
        Br   8.601392e+00   2.924088e+00   5.771896e+00
        Cs   5.709214e+00   3.322577e-02   5.757078e+00
        Sn   8.639101e+00   2.883381e+00   8.635577e+00
        Br   5.757096e+00   8.638206e+00   2.876299e+00
        Br   8.628540e+00   5.742988e+00   2.821536e+00
        Br   8.601392e+00   8.680756e+00   1.522723e-02
        Cs   5.709214e+00   5.789894e+00   4.099544e-04
        Sn   8.639101e+00   8.640049e+00   2.878909e+00
        Br   5.757096e+00   8.638206e+00   8.632967e+00
        Br   8.628540e+00   5.742988e+00   8.578205e+00
        Br   8.601392e+00   8.680756e+00   5.771896e+00
        Cs   5.709214e+00   5.789894e+00   5.757078e+00
        Sn   8.639101e+00   8.640049e+00   8.635577e+00
PRIMCOORD         13
        40         1
        Br   6.914613e-04   2.883518e+00   2.875041e+00
        Br   2.867878e+00  -2.213551e-02   2.786433e+00
        Br   2.823952e+00   2.952365e+00   2.463818e-02
        Cs  -7.678342e-02   5.376042e-02   6.633202e-04
        Sn   2.884966e+00   2.886500e+00   2.879264e+00
        Br   6.914613e-04   2.883518e+00   8.631710e+00
        Br   2.867878e+00  -2.213551e-02   8.543102e+00
        Br   2.823952e+00   2.952365e+00   5.781306e+00
        Cs  -7.678342e-02   5.376042e-02   5.757332e+00
        Sn   2.884966e+00   2.886500e+00   8.635932e+00
        Br   6.914613e-04   8.640186e+00   2.875041e+00
        Br   2.867878e+00   5.734533e+00   2.786433e+00
        Br   2.823952e+00   8.709034e+00   2.463818e-02
        Cs  -7.678342e-02   5.810429e+00   6.633202e-04
        Sn   2.884966e+00   8.643168e+00   2.879264e+00
        Br   6.914613e-04   8.640186e+00   8.631710e+00
        Br   2.867878e+00   5.734533e+00   8.543102e+00
        Br   2.823952e+00   8.709034e+00   5.781306e+00
        Cs  -7.678342e-02   5.810429e+00   5.757332e+00
        Sn   2.884966e+00   8.643168e+00   8.635932e+00
        Br   5.757360e+00   2.883518e+00   2.875041e+00
        Br   8.624546e+00  -2.213551e-02   2.786433e+00
        Br   8.580620e+00   2.952365e+00   2.463818e-02
        Cs   5.679885e+00   5.376042e-02   6.633202e-04
        Sn   8.641634e+00   2.886500e+00   2.879264e+00
        Br   5.757360e+00   2.883518e+00   8.631710e+00
        Br   8.624546e+00  -2.213551e-02   8.543102e+00
        Br   8.580620e+00   2.952365e+00   5.781306e+00
        Cs   5.679885e+00   5.376042e-02   5.757332e+00
        Sn   8.641634e+00   2.886500e+00   8.635932e+00
        Br   5.757360e+00   8.640186e+00   2.875041e+00
        Br   8.624546e+00   5.734533e+00   2.786433e+00
        Br   8.580620e+00   8.709034e+00   2.463818e-02
        Cs   5.679885e+00   5.810429e+00   6.633202e-04
        Sn   8.641634e+00   8.643168e+00   2.879264e+00
        Br   5.757360e+00   8.640186e+00   8.631710e+00
        Br   8.624546e+00   5.734533e+00   8.543102e+00
        Br   8.580620e+00   8.709034e+00   5.781306e+00
        Cs   5.679885e+00   5.810429e+00   5.757332e+00
        Sn   8.641634e+00   8.643168e+00   8.635932e+00
PRIMCOORD         14
        40         1